<?xml version="1.0"?>
<VTKFile type="UnstructuredGrid"  version="0.1"  >
<UnstructuredGrid>
<Piece  NumberOfPoints="2868" NumberOfCells="5400">
<Points>
<DataArray  type="Float64"  NumberOfComponents="3"  format="ascii">0.534923 0.326073 0  0.510642 0.314196 0  0.466125 0.293082 0  0.436448 0.281205 0  0.409468 0.275927 0  0.368998 0.270648 0  0.35281 0.275927 0  0.381139 0.302319 0  0.405421 0.326073 0  0.410817 0.33531 0  0.408119 0.349826 0  0.400025 0.357744 0  0.375743 0.368301 0  0.329878 0.392055 0  0.297502 0.432963 0  0.282663 0.476511 0  0.285361 0.524018 0  0.298851 0.572845 0  0.317737 0.6045160000000001 0  0.337972 0.6361869999999999 0  0.360904 0.674457 0  0.368998 0.69953 0  0.359555 0.7219640000000001 0  0.360904 0.757594 0  0.370347 0.766831 0  0.381139 0.762872 0  0.390582 0.741758 0  0.404072 0.720644 0  0.424307 0.707448 0  0.447239 0.702169 0  0.480964 0.704808 0  0.479615 0.6889729999999999 0  0.468823 0.675776 0  0.447239 0.6691780000000001 0  0.428354 0.6691780000000001 0  0.410817 0.6639 0  0.404072 0.653343 0  0.395978 0.628269 0  0.387884 0.59132 0  0.389233 0.576804 0  0.397327 0.557009 0  0.410817 0.547772 0  0.424307 0.546452 0  0.437797 0.55305 0  0.44589 0.5662469999999999 0  0.441843 0.582082 0  0.439145 0.5979179999999999 0  0.449937 0.609795 0  0.468823 0.603196 0  0.479615 0.59 0  0.489058 0.570205 0  0.494454 0.546452 0  0.505246 0.522699 0  0.522783 0.509502 0  0.55246 0.494986 0  0.586185 0.484429 0  0.615863 0.48047 0  0.64554 0.473872 0  0.6671240000000001 0.461995 0  0.683312 0.451438 0  0.696802 0.435603 0  0.703547 0.417128 0  0.7116400000000001 0.393374 0  0.7183850000000001 0.37226 0  0.7251300000000001 0.364342 0  0.739969 0.353785 0  0.7453650000000001 0.344548 0  0.7453650000000001 0.327393 0  0.737271 0.318155 0  0.7183850000000001 0.316835 0  0.7008490000000001 0.319475 0  0.677916 0.318155 0  0.650936 0.316835 0  0.610467 0.318155 0  0.57944 0.324753 0  0.559205 0.328712 0  0.5389699999999999 0.326073 0  1 1 0  1 0 0  0 0 0  0 1 0  0.532238 0.32476 0  0.528748 0.323052 0  0.52421 0.320833 0  0.518311 0.317947 0  0.503447 0.310783 0  0.494093 0.306347 0  0.481933 0.30058 0  0.452151 0.28749 0  0.392327 0.273691 0  0.379141 0.271971 0  0.360474 0.283066 0  0.369797 0.291752 0  0.391424 0.31238 0  0.399335 0.32012 0  0.40958 0.341964 0  0.393939 0.36039 0  0.386028 0.36383 0  0.364248 0.374254 0  0.349304 0.381994 0  0.315801 0.409841 0  0.292986 0.551616 0  0.350934 0.657818 0  0.360127 0.737055 0  0.360566 0.748664 0  0.385245 0.753692 0  0.396447 0.732578 0  0.466301 0.703661 0  0.459439 0.672908 0  0.418442 0.666195 0  0.400553 0.642441 0  0.39255 0.612619 0  0.389913 0.60058 0  0.392752 0.568197 0  0.444131 0.573132 0  0.458149 0.606926 0  0.5005540000000001 0.533026 0  0.571522 0.489019 0  0.632637 0.476741 0  0.689177 0.444553 0  0.708121 0.403702 0  0.715453 0.38144 0  0.732406 0.359166 0  0.7453650000000001 0.337089 0  0.72906 0.317581 0  0.629879 0.317522 0  0.59293 0.321884 0  0.568003 0.326991 0  0.55202 0.327775 0  0.546493 0.327054 0  0.542241 0.326499 0  1 0.9 0  1 0.8 0  1 0.7 0  1 0.6 0  1 0.5 0  1 0.4 0  1 0.3 0  1 0.2 0  1 0.1 0  0.9 0 0  0.8 0 0  0.7 0 0  0.6 0 0  0.5 0 0  0.4 0 0  0.3 0 0  0.2 0 0  0.1 0 0  0.1 1 0  0.2 1 0  0.3 1 0  0.4 1 0  0.5 1 0  0.6 1 0  0.7 1 0  0.8 1 0  0.9 1 0  0 0.1 0  0 0.2 0  0 0.3 0  0 0.4 0  0 0.5 0  0 0.6 0  0 0.7 0  0 0.8 0  0 0.9 0  0.535686 0.5031910000000001 0  0.753987 0.733359 0  0.167145 0.741436 0  0.173378 0.257204 0  0.733497 0.159862 0  0.554096 0.15788 0  0.849187 0.479053 0  0.488793 0.838452 0  0.138507 0.5592 0  0.30686 0.154944 0  0.348904 0.890523 0  0.058006 0.065099 0  0.06984899999999999 0.937917 0  0.93633 0.939704 0  0.934625 0.053613 0  0.343397 0.333452 0  0.473272 0.639943 0  0.433266 0.638072 0  0.415174 0.58269 0  0.533435 0.545042 0  0.390848 0.340652 0  0.53655 0.320242 0  0.127966 0.393775 0  0.83861 0.850455 0  0.635242 0.8551299999999999 0  0.852158 0.633441 0  0.653427 0.626848 0  0.861226 0.24292 0  0.166128 0.12976 0  0.216875 0.8698709999999999 0  0.458305 0.11179 0  0.84446 0.101633 0  0.202024 0.642528 0  0.644825 0.115855 0  0.671342 0.218358 0  0.251354 0.286186 0  0.262388 0.75153 0  0.063044 0.751571 0  0.068189 0.242962 0  0.435781 0.9053949999999999 0  0.934144 0.451133 0  0.568393 0.237622 0  0.814984 0.395506 0  0.752951 0.517227 0  0.456254 0.780699 0  0.073352 0.531116 0  0.337731 0.206071 0  0.363213 0.960371 0  0.330742 0.363592 0  0.516613 0.55705 0  0.369057 0.332992 0  0.500926 0.617309 0  0.498004 0.665534 0  0.412142 0.61178 0  0.454233 0.6366039999999999 0  0.422782 0.567496 0  0.541193 0.5214800000000001 0  0.439761 0.65557 0  0.5163 0.533672 0  0.414775 0.64562 0  0.40073 0.576135 0  0.430362 0.5880339999999999 0  0.385432 0.351492 0  0.400298 0.335397 0  0.398325 0.348194 0  0.528702 0.314885 0  0.540814 0.322334 0  0.534477 0.322953 0  0.619095 0.743583 0  0.885162 0.737972 0  0.08076 0.668849 0  0.90734 0.36634 0  0.09468699999999999 0.868937 0  0.759838 0.912152 0  0.901518 0.540898 0  0.747285 0.607479 0  0.229182 0.071641 0  0.06915399999999999 0.450091 0  0.244775 0.203309 0  0.076534 0.331755 0  0.897847 0.167826 0  0.578909 0.911415 0  0.07713299999999999 0.146341 0  0.477215 0.203448 0  0.922631 0.869341 0  0.517415 0.074785 0  0.297026 0.827793 0  0.7832710000000001 0.246505 0  0.74519 0.061079 0  0.36033 0.069068 0  0.210313 0.475228 0  0.859426 0.928758 0  0.5745479999999999 0.609182 0  0.243069 0.383398 0  0.283099 0.934598 0  0.417416 0.843141 0  0.643942 0.553164 0  0.112687 0.079336 0  0.281357 0.658386 0  0.765043 0.436177 0  0.611361 0.198486 0  0.234496 0.58911 0  0.206479 0.702638 0  0.679608 0.155818 0  0.62682 0.259978 0  0.690538 0.264164 0  0.448938 0.956308 0  0.808154 0.328403 0  0.379583 0.91913 0  0.308083 0.297769 0  0.312358 0.730249 0  0.563101 0.278576 0  0.435597 0.746198 0  0.385475 0.225229 0  0.572248 0.518034 0  0.357864 0.35422 0  0.497647 0.641694 0  0.458101 0.655768 0  0.360474 0.310727 0  0.467038 0.620139 0  0.47798 0.659909 0  0.41102 0.628072 0  0.48324 0.609015 0  0.427544 0.617941 0  0.388633 0.328253 0  0.405336 0.599404 0  0.408351 0.565178 0  0.42395 0.600985 0  0.431562 0.576523 0  0.424905 0.6551979999999999 0  0.398064 0.58782 0  0.427739 0.557934 0  0.5192909999999999 0.303443 0  0.53142 0.320293 0  0.5449000000000001 0.323642 0  0.537166 0.323513 0  0.153974 0.920841 0  0.9181859999999999 0.67343 0  0.759946 0.820588 0  0.5375259999999999 0.783091 0  0.816532 0.545843 0  0.813991 0.178083 0  0.836774 0.702023 0  0.149815 0.318856 0  0.662287 0.923338 0  0.680146 0.791192 0  0.708961 0.663172 0  0.9372779999999999 0.287318 0  0.574622 0.6881660000000001 0  0.5894740000000001 0.076262 0  0.502822 0.926683 0  0.222269 0.811068 0  0.380457 0.164786 0  0.15321 0.684154 0  0.458063 0.051413 0  0.161702 0.056026 0  0.199351 0.198818 0  0.298946 0.09553200000000001 0  0.902465 0.795949 0  0.121139 0.791477 0  0.906269 0.112287 0  0.056109 0.822332 0  0.512172 0.13237 0  0.940964 0.741805 0  0.888887 0.408777 0  0.354543 0.825964 0  0.808736 0.068638 0  0.068507 0.394071 0  0.719105 0.563843 0  0.247287 0.149664 0  0.293062 0.237128 0  0.240524 0.434997 0  0.141255 0.623289 0  0.945202 0.160621 0  0.502914 0.247629 0  0.144669 0.480811 0  0.665025 0.060817 0  0.728047 0.224344 0  0.861995 0.313312 0  0.200068 0.534235 0  0.253262 0.965623 0  0.893804 0.49307 0  0.604391 0.572456 0  0.947088 0.345347 0  0.439372 0.227307 0  0.629847 0.159823 0  0.273405 0.880181 0  0.302744 0.776823 0  0.781502 0.295365 0  0.275342 0.349602 0  0.7283849999999999 0.472798 0  0.229136 0.246478 0  0.807794 0.480346 0  0.709476 0.112786 0  0.275506 0.694991 0  0.771674 0.394419 0  0.449715 0.861802 0  0.419159 0.799696 0  0.674851 0.503139 0  0.280443 0.61016 0  0.572443 0.192538 0  0.393113 0.87525 0  0.405555 0.948428 0  0.330942 0.934103 0  0.540509 0.597101 0  0.312763 0.6689310000000001 0  0.254368 0.540179 0  0.595265 0.25915 0  0.606679 0.234099 0  0.657131 0.279138 0  0.722458 0.279478 0  0.333 0.308056 0  0.351529 0.246142 0  0.455714 0.7257940000000001 0  0.585239 0.295143 0  0.340062 0.72492 0  0.545593 0.293773 0  0.555449 0.545426 0  0.414311 0.737314 0  0.590854 0.502323 0  0.350507 0.368444 0  0.484423 0.625665 0  0.483899 0.674542 0  0.378137 0.317274 0  0.446416 0.646404 0  0.373532 0.347654 0  0.446876 0.619769 0  0.466106 0.666068 0  0.437545 0.609254 0  0.434988 0.565726 0  0.41462 0.656829 0  0.418803 0.556961 0  0.398425 0.327446 0  0.517803 0.310421 0  0.549516 0.322918 0  0.57701 0.842889 0  0.8291269999999999 0.773906 0  0.643235 0.684732 0  0.134281 0.207734 0  0.865997 0.055966 0  0.680959 0.723345 0  0.165229 0.8415550000000001 0  0.54558 0.959672 0  0.783726 0.656439 0  0.913315 0.595533 0  0.699439 0.860667 0  0.785839 0.125076 0  0.551673 0.037713 0  0.9200970000000001 0.223214 0  0.206406 0.299726 0  0.087064 0.596401 0  0.935644 0.394252 0  0.964557 0.252582 0  0.230124 0.928346 0  0.120579 0.271764 0  0.8572149999999999 0.524082 0  0.7670979999999999 0.5551469999999999 0  0.936094 0.507131 0  0.804064 0.59585 0  0.700565 0.608273 0  0.429773 0.174231 0  0.117746 0.727333 0  0.5389620000000001 0.730231 0  0.862761 0.359173 0  0.821444 0.284046 0  0.193552 0.35818 0  0.234923 0.505555 0  0.193209 0.421217 0  0.220144 0.755896 0  0.594015 0.131642 0  0.283813 0.195855 0  0.517519 0.213961 0  0.553509 0.639116 0  0.280391 0.378018 0  0.852183 0.436817 0  0.746983 0.197173 0  0.821806 0.221318 0  0.449853 0.828453 0  0.883758 0.453926 0  0.183484 0.589542 0  0.348384 0.129314 0  0.255254 0.838525 0  0.504849 0.798516 0  0.320344 0.863432 0  0.611669 0.525425 0  0.265864 0.804962 0  0.72056 0.521442 0  0.613372 0.6101220000000001 0  0.481262 0.881068 0  0.655778 0.191988 0  0.701921 0.196918 0  0.5658260000000001 0.5731810000000001 0  0.46914 0.240927 0  0.343219 0.173284 0  0.888786 0.278502 0  0.244113 0.6750930000000001 0  0.739546 0.417914 0  0.784023 0.355942 0  0.326805 0.265549 0  0.248616 0.6
[...]
<PointData  Scalars="f_17"> 
<DataArray  type="Float64"  Name="f_17"  format="ascii">2.5399320583210456e-153  -5.9532942022443103e-124  6.5327823407723846e-86  -5.1011684067040608e-83  -6.6753314077397385e-82  3.1175529551809224e-98  -6.2833814885143859e-100  -6.9490443180548647e-127  3.7876134101523917e-158  1.5142965646092970e-158  -5.1024970628826343e-166  -1.7607067985763751e-165  6.4383888658075434e-144  -5.7816501685415491e-124  -1.1895608111263179e-119  4.4697996176468408e-128  -7.2225091337671275e-124  1.6414082162186956e-122  -1.1801120300435612e-122  1.0718291081221296e-124  -1.7923149273353485e-122  -1.1090104223982328e-122  4.5575140400486177e-115  -1.6376386564812154e-103  -1.4818674259408750e-95  -5.5357036291148379e-97  1.9495592658428306e-98  -1.9559012767797090e-88  -6.0626086329669943e-89  9.0517828347304678e-82  9.1702764958803516e-68  -1.0269861456220361e-77  6.4623234419139276e-79  4.3208172769172017e-87  5.5620254326071784e-96  8.0047238211138608e-116  1.9533191486040297e-107  1.4033116973283374e-105  1.5660098094356807e-127  1.5766458166546518e-131  1.5247060256950649e-132  7.8393318679781058e-133  2.9409869115981659e-143  2.8770248616654795e-142  2.9619247041321326e-138  4.7710818622368757e-116  2.8211057349716725e-105  3.3563772977269987e-96  1.4244639933104925e-82  7.4456209855816701e-80  4.4288310717304880e-82  -7.4943532835493849e-80  2.1806139015554195e-88  -9.9298693745801314e-81  1.3855088990275669e-72  4.4561689732631646e-72  1.1929152379677294e-72  9.4527250599964830e-69  1.3750165220687365e-69  6.8958017463415917e-67  -1.3384686534845522e-59  1.4461539629167874e-62  1.6256973076733628e-69  1.4874954849143091e-87  9.3244996446633079e-80  4.7532695366451469e-69  3.6616378309659879e-71  4.5391408074367878e-67  9.3757297807440843e-68  3.3139474299792627e-72  -8.1360327107966286e-72  4.7865600791032899e-76  -5.9321703307272338e-75  3.7486081023466517e-74  3.7913687471117245e-92  -2.0989044906669690e-113  1.6453127845155004e-142  6.4960562706044901e-05  6.3239155899988349e-05  -1.5536049108915025e-79  3.9238574360541440e-79  3.3966921863510305e-150  2.6217528809114502e-148  1.2262302687507138e-137  -1.7700291299832741e-134  -4.0480443946206390e-115  -6.0944677314240762e-104  4.9839788529476995e-96  4.5770289291265462e-83  -1.1522643806883348e-91  1.0670594395753218e-90  -3.0189219872404774e-110  -5.2280561435944057e-118  -1.6182995389718703e-137  -5.8538792765295847e-147  1.8212542264261738e-158  1.9230143398321781e-154  7.9501383963558254e-145  -1.4921236779199163e-133  -2.0123021462204035e-124  -1.7790621980647624e-119  3.8590825150257216e-124  5.7929081189950749e-123  -9.1475226214353131e-114  -2.9778732054799697e-112  9.0402085278730589e-100  3.1467999531002542e-90  1.3844285674740400e-76  2.0092576805378452e-87  1.2361178315670687e-105  2.9236818711584971e-105  1.0779846115310154e-105  1.0725705651150325e-116  2.5514118089611881e-132  4.1814038598949207e-127  1.9782901429960140e-88  5.3976376321081852e-89  4.7745076916009984e-72  -6.4126162581408063e-69  -1.4724998702796696e-59  3.6061780865711355e-68  8.2298600527521716e-78  1.2491074847633431e-69  1.2271316909885165e-69  -4.6806430984757441e-73  1.8459898036699399e-74  1.6011037993862170e-82  -2.8454316330287473e-102  6.8880853652813996e-121  1.5532974286445512e-130  6.1479542000714062e-141  1.0921981797716801e-04  1.3766146477179510e-04  1.0905702504166156e-04  1.2806661109015111e-04  9.8977423914829032e-05  1.0309350177121782e-04  8.0550788231173670e-05  8.9049777854498404e-05  1.1759320908514226e-04  7.2458858987111368e-10  -5.0043742672632675e-17  1.4696393340684150e-24  -4.6132966706065161e-32  -2.3949367897714728e-40  -4.5085231880501095e-48  -2.0224617756541277e-56  -6.4736981568937634e-64  -9.5633326028826211e-72  3.1877414000904698e-71  4.7925692669354330e-64  -7.4313504411118592e-56  5.3597421667332540e-47  -7.4542696397698221e-39  2.0230491668457856e-30  1.8514886199518459e-24  2.9822948878800114e-17  1.1631525961297990e-09  -8.7564968585716808e-82  -1.5732993046470815e-81  -3.5566776337299377e-87  2.6004363671248179e-94  -1.8921357235818121e-101  -1.2619979623873766e-101  1.5172440446161207e-94  3.3648663599313263e-88  2.6517319718705541e-82  -7.7623222842379280e-81  6.0664656966573899e-19  1.3988263458872883e-89  -4.3849488410288605e-80  7.2810063899786695e-29  1.0602833657461390e-46  4.1488237138258786e-20  1.1866045363559840e-44  -3.3299271424120468e-109  1.8345994940513243e-68  3.7647229830324760e-55  -5.7986804713143546e-79  1.2955435892293918e-76  4.8315426417537384e-08  4.7215047150617216e-08  -5.1557488919280383e-114  4.9029480726034718e-70  1.9525551282650311e-87  3.2106247953229649e-113  1.8238532602310972e-70  2.4788041935420530e-145  3.1858726420826637e-138  -1.2380209119799508e-93  2.9982913006065428e-13  1.4448704075012008e-29  6.7389967282029952e-13  -1.6268701194812595e-32  1.7817496470239535e-15  -1.2067706815975531e-69  2.7101912731840471e-72  -1.3460507705410166e-51  4.2778869354270778e-15  3.7734489371451946e-98  1.1473867215902310e-33  -2.2555874822743053e-44  -2.2396290928016847e-88  1.6434835615745813e-87  5.6186269065856736e-89  -3.0809656244400078e-81  2.8638302048400323e-43  1.2510812788274348e-07  -2.3146574810725657e-64  7.0538341045163657e-28  -2.9826671491416053e-34  1.0699417468966038e-60  1.5253894662775466e-107  -5.6613438903059021e-77  9.4458517373833883e-55  2.4531078634768780e-114  -1.7844670730255172e-70  1.7491154281845701e-124  6.3687751156642431e-64  -4.5698215761920230e-61  7.9946620527066950e-104  1.3100083122329609e-78  8.1426514692381212e-123  -9.4508163981645364e-72  8.6474258821597855e-87  3.4458886226722969e-79  9.7651828785223234e-97  5.1455937651569430e-123  2.6058425972936829e-113  1.4130345974999976e-143  -4.1567163356048569e-147  5.5378557362261770e-155  3.3571658904483139e-127  6.8828315322495116e-131  4.0086130936967018e-149  3.5745306995354495e-30  5.8042208328185442e-13  -5.1275501800361275e-96  4.6377469585435736e-14  4.8098544215170858e-77  1.1942711665194494e-18  1.9709600739253005e-13  8.6797412742974221e-25  -2.2220043307501912e-63  -1.4869055461582499e-100  -2.7950750600634852e-75  4.9745046355805552e-89  1.1492519147422651e-13  6.7889351896133748e-31  -1.2165439017518186e-75  4.2889412767569156e-60  1.2119048019722440e-07  1.8708078244517798e-45  1.7040031272235709e-67  1.0808672442915928e-28  -7.6139515403526150e-25  -1.2196177003106955e-55  3.6842712642174202e-110  1.4260600033148834e-13  4.2568684591726391e-45  -2.4277726153852068e-101  1.1983422622788213e-61  3.8885453901764765e-56  6.3968631490770369e-47  -4.0833231238430034e-75  2.2774533478591038e-106  1.6040715235361424e-40  -1.5240158902305750e-48  -4.9263332444972050e-106  1.7006716890483204e-91  4.7378319294633102e-34  9.2737422914219300e-58  1.1992022125632085e-50  5.7228855382472155e-43  1.1856242612551220e-33  2.0110833205262868e-49  -9.9984305568406445e-99  1.1468778237152036e-96  4.8306989207755751e-81  6.2854002636451267e-73  4.4126852532639729e-75  7.0237140515672461e-64  -4.4315450045353227e-123  7.4864659945534722e-61  1.6920271927754010e-77  -4.8452366738194313e-117  7.3683797777258194e-79  5.6690410848943036e-69  3.0663054247286921e-96  2.0114273596370459e-73  4.7082893373651756e-95  1.4208329015472171e-135  1.7123942617098581e-112  8.9082784434657471e-123  4.7691787550884275e-104  3.1751134095493836e-122  5.3730676198989270e-96  1.3103930267894252e-121  4.4079590572498706e-133  6.2590120400982456e-115  2.7272090359148638e-138  4.4525574106802985e-130  3.1121203184295321e-142  5.9584683941756770e-71  2.2455613202552866e-07  6.6664215301372362e-19  2.4088400728192723e-43  5.3062441564485638e-21  3.3655767727713024e-21  2.7701604180521553e-13  -6.2049135474078377e-87  9.2607739689750451e-25  2.3434238826653702e-24  5.1149992170799059e-24  1.6738599967357154e-08  3.9980768461005333e-43  -8.1312575580897708e-39  5.0470743668679831e-37  5.1663901589995290e-78  -9.4535053738776447e-64  5.5920318597702948e-96  -1.8945641839723528e-47  -2.5759090014422923e-69  -1.6919257627673068e-73  -2.5767669373879699e-61  3.4579619525319276e-08  1.6703119076584350e-83  1.3349252914993327e-08  5.8313834838711301e-83  8.6653731754613463e-52  1.5124076575769947e-07  8.7481749019665397e-14  -2.2563636535976928e-65  1.5443493743339750e-20  5.1855839183856674e-96  2.6944109588231510e-32  -2.0083393554190567e-67  -3.3083663401234225e-82  -5.1748587499346209e-109  3.0641803723064447e-102  9.7209609217834381e-08  -1.5155608955403399e-77  3.1888670357123555e-101  9.7462698961383678e-32  1.9928242172418395e-40  3.6468974961501694e-20  1.6916664128770378e-110  2.3242209231115118e-63  7.2780318572980548e-14  2.7601305227627004e-47  1.1130139244527094e-07  9.1572318410811367e-67  5.3915664723912925e-40  1.4375824616886041e-66  -4.3635229082528579e-82  2.0695223257208208e-39  1.2941961397169888e-102  1.4558532379984176e-41  1.1636273601025891e-80  4.1833502680695699e-27  1.4535576882696641e-27  1.8377061070664878e-100  5.1059538120398244e-42  2.7551392346867678e-49  -8.7693662870477197e-66  -8.6435405791215156e-51  6.2777950556504107e-114  1.1305584980928040e-53  4.6450011598797437e-50  1.1446012949795762e-48  1.3279580924343899e-55  7.4444906097265591e-54  7.3755735646818375e-113  -2.8495458429270849e-114  2.1437524143311105e-65  1.4768333092787717e-56  7.7047722952981549e-58  5.2381194387406364e-52  9.8849089839911445e-108  -1.2468233010836555e-86  -1.6972680723406645e-72  8.9331912288873951e-74  -8.3084201708626089e-105  3.7961514631983941e-97  5.9845252256509289e-62  4.8442860231205805e-81  9.3105600457523150e-64  -1.4631845230553617e-124  7.3506314912432087e-71  -5.8268145270290603e-70  -4.9027874280601946e-127  3.6583495089926324e-86  8.3834597487750830e-134  8.0687101112626902e-87  1.7724148349117064e-78  3.7853983992145294e-96  6.3577899338051552e-132  6.5192727616161453e-106  4.0308278066991077e-132  -3.5242918278610482e-146  -7.4973837476973670e-124  1.5588480301185804e-119  2.9224976409424775e-35  2.2786785879916117e-14  4.9027455363755707e-30  -6.5589506093127892e-76  3.7401387595040797e-14  7.3734062788588364e-25  5.7687107908585952e-78  2.2124602431304500e-36  2.0295102042168942e-18  4.6719338391998277e-08  4.2007997096409860e-24  1.8168550194126736e-21  -1.9965662589785723e-39  1.2535555929276522e-08  4.4441922281684642e-87  6.2550532157974559e-105  2.0854822793396942e-08  1.1002990068175122e-07  9.3878886763477225e-68  -8.5895660418163778e-83  1.3563205370402085e-19  3.3438205163697436e-26  1.8299244440875969e-08  3.7743269627957072e-19  3.8004454675299003e-31  -1.1762821595313540e-59  -3.5053839634393268e-91  -1.2720472025284642e-44  6.2235803271375272e-20  9.5966203397280106e-29  8.5704555529786107e-94  -3.6090605084105483e-117  5.0344979001123536e-101  7.1019357069010757e-85  5.8014959101948410e-40  2.0325802717391610e-74  -1.4237644327003537e-60  -3.4125293917122856e-45  1.4936800439307487e-110  3.8732111963977833e-20  1.7144116038890678e-33  3.2701492723335743e-21  1.5793962340668478e-51  3.7768385017916300e-14  6.3891079140483947e-105  -1.6089361491738586e-63  2.2967863729846143e-72  1.6704766919151035e-48  2.4643373155812035e-61  2.3804133427182574e-55  5.1040731042488562e-74  -1.7265676400051913e-40  -1.0338555006605364e-39  6.8267644030458719e-43  6.8906833665543809e-42  -9.7567766563076692e-37  -4.3345395559154296e-53  -1.1468632042867729e-67  -1.2108752129810165e-69  1.2283208741941329e-14  -8.9741307618529568e-99  9.6194711974469590e-49  -1.6634306689206775e-45  -1.4588471041616452e-92  -4.4746271210247963e-106  3.3219462029921837e-34  5.3502780773766676e-34  1.1460324464772325e-104  -5.1501579589699690e-78  -3.0895439166480363e-77  1.0370768800170029e-63  -4.7436359991313487e-115  1.4202570287112180e-81  -4.5226220810684988e-37  -4.9372189766406256e-50  9.0923380817767375e-57  4.9353752233875336e-105  2.0760352822987576e-51  1.4539240081680201e-50  8.0813076481816579e-118  7.3868584701147782e-115  1.5103814019252409e-65  3.6638759930296206e-43  -1.7300747172078225e-81  7.8432401865007861e-85  1.8105295577608477e-90  6.0660777496957121e-74  4.8373542857636895e-59  2.3685571540353744e-56  3.2145573910111548e-64  2.4352900475834984e-64  -3.7475936935875975e-59  2.4148905286548681e-97  7.8569510790689471e-48  -6.5768941159847681e-89  5.4430950265535169e-50  -2.7241276550699959e-95  -9.4378076532190295e-57  -1.3400728881259895e-78  4.9931674890888446e-83  -2.8416771488899466e-71  6.7542419101033926e-90  8.2443045100378138e-55  -4.5855874049956330e-80  -7.8100715077963133e-68  -5.3579348388995382e-109  -5.1109296562850026e-104  -1.6625177914629277e-102  -1.8627801965750513e-83  -1.3252559467349928e-134  1.2551789963334883e-114  1.5601332274475486e-134  -3.8948214543160860e-127  1.4947975617113433e-07  2.9698575811773109e-30  2.9219449164860486e-14  1.5533486899186601e-37  4.9302755682598408e-15  1.2172122026187284e-83  1.2774357563904917e-38  4.5263081055089382e-37  1.4834153300626198e-41  5.1062807037908756e-45  4.5226346571976216e-26  3.8813592362933557e-50  1.6148163130376584e-37  -1.6895570974976326e-94  -1.0241018696260174e-57  1.6996413670961226e-27  9.3524034530204000e-58  1.9205654457978910e-46  2.9103792005428120e-36  -3.6350322444936601e-52  8.4365601419536981e-14  2.7175396483271433e-68  2.2658759960512441e-53  6.1063215429872841e-61  -5.5725018853418168e-118  3.2885778306303379e-27  1.1194391370878043e-26  -2.5392959397995636e-92  -5.6322353467859709e-31  1.7622420486718631e-20  8.0514634582696955e-42  6.8569015444116030e-110  4.1796947184582588e-34  -1.8842837457508431e-60  5.7659376664169103e-34  1.4044946518403582e-70  1.1436624463387477e-26  -7.3087408841223001e-55  2.5119602442283117e-21  1.7996292212168528e-44  -7.5413803444516992e-76  1.5185632763640102e-80  -1.1883469703935324e-82  1.3528477870332364e-68  -2.1003965601187777e-79  -8.9052119063092493e-89  -5.6880259164826921e-68  4.8593874644675215e-34  2.2613012195680045e-34  -1.5654736273439860e-74  1.4852852002398848e-89  1.6475179208601806e-42  7.2850263878247516e-54  -2.8422182726218621e-52  -1.0096709821518433e-111  5.3732803742596576e-27  3.6342646600318639e-81  -1.9705760872482964e-61  4.9628365306317755e-56  1.9567071719579582e-42  1.5619244411802448e-58  -4.4336472586040862e-58  1.0676218367448197e-74  2.1286088333912765e-113  2.8968278439186336e-42  1.6786821604111422e-35  3.4717141934721908e-66  1.2320240530465758e-64  -7.1776740553592582e-110  1.7158084415306989e-52  1.6846663170182466e-48  -8.7105536483256678e-59  -3.7777369483813688e-113  -3.6626918608659469e-52  -7.3196326856155894e-86  7.2783203957870302e-67  3.7825417606216604e-46  -2.1944867437595900e-66  -2.1617573238064270e-43  4.4015201124243429e-74  5.6326814175259683e-59  -5.9396278875340173e-101  6.6259313653746723e-86  1.2951123093738954e-76  2.2818719829236535e-72  1.1384963393842042e-92  -1.1727228381709227e-65  8.1185024314654301e-64  -9.5033963112494060e-79  5.4843002099438108e-89  -8.0767642519134619e-68  3.5944941549257082e-81  1.1458094368760321e-57  -2.6066622174506113e-93  2.5360224552789342e-73  2.0138896886511982e-68  -1.0960108242836877e-56  9.0328410580935955e-108  9.8706320997016461e-81  2.8275251791377597e-63  -1.6518216000101622e-92  1.3099719794904938e-88  3.7427551412592548e-103  -8.4822776070207340e-113  -4.2173913129207662e-115  4.3872092070993337e-110  -1.7687473229167912e-53  2.2722911969901250e-16  7.9665373734697277e-37  9.7919900205823959e-40  8.8928740154975240e-29  -3.0189635126139696e-123  2.5823687741248127e-38  -5.4129859189168750e-71  -1.1284156529849254e-51  3.6900216901185440e-27  1.8994890200458876e-33  7.3499227175703547e-44  1.0899393022067385e-26  4.8500868432959170e-23  -1.8477695583719876e-119  2.5872776644866868e-56  -7.8687159740987182e-60  2.8813313122707071e-68  -1.1858348149009029e-58  -4.1008035099660865e-52  -4.1350853829435897e-72  2.2843353016103873e-41  8.9126790366940598e-51  -6.3426528167422514e-60  2.1500491288813366e-69  8.5499759271759313e-53  -2.3010479970253360e-84  -2.8330055322742985e-104  4.3015442315481151e-76  1.0692402348934245e-61  2.2774685269239712e-36  1.7939600231768153e-76  -6.3466303285290438e-37  2.0718326407952591e-27  1.7784113275260311e-63  -5.4228071775008722e-75  3.4662963483463697e-121  2.9187441403694724e-50  5.0201131960004059e-42  -2.8152878385554504e-69  1.5058205760952033e-99  2.8514975007986338e-49  2.2170905797691202e-65  -1.1188088256198022e-51  1.7274748431797199e-62  -3.9999669119361369e-64  -2.8300152835307083e-70  -2.0818799002411642e-95  9.3594648394281036e-84  -3.7996963710898231e-51  4.7192770599304185e-41  1.3331857265901353e-42  4.5026201098673166e-81  1.3806233372841255e-65  -5.5512371049846562e-63  7.9453458276762882e-78  1.2690884139533405e-49  -2.0572233021906335e-91  -6.5151174813449711e-99  1.0346263131413787e-80  3.4524822298592566e-58  6.2434475889235673e-74  3.0866388403943646e-65  -3.1151983571248907e-88  1.6183297080567744e-59  8.1806550625833951e-101  1.6642835238586030e-93  2.0990604804591245e-50  9.7567418634785624e-68  5.7224744579485347e-71  2.9228745841205044e-54  -4.2095979087507380e-46  -1.7303780462934935e-54  3.0955036901353858e-89  2.5272025985385020e-94  3.2375914722005797e-66  1.1181415301236721e-82  5.4913817467163581e-100  8.6295863550030143e-98  3.2592286923372071e-109  9.1006014723127127e-117  9.5189309082993527e-79  3.9749539751906353e-36  -4.9015296835283831e-47  -1.1604667343236855e-44  3.7423331539864768e-51  1.5236859744992372e-58  1.2390487192836280e-51  -2.2231749819710008e-91  -1.0483876234678234e-59  -5.3713186662956584e-71  1.6693531522201504e-79  1.3858749986308893e-43  -1.4568246580403643e-71  2.1640179676917642e-51  1.6732966859336554e-35  -2.1349136734708467e-86  -4.7033505147603612e-75  -4.4012173750712048e-60  1.6756036624312299e-85  2.7563488010309363e-73  -1.0799984340228043e-59  5.7484437564883732e-52  -3.2090571335460129e-68  -8.8532366255324240e-53  2.4184223600593876e-58  -1.7283347956969408e-89  9.5929312886623169e-96  -3.3344434170522792e-86  4.7705213127829991e-61  7.7526258834756243e-62  1.5795529154373656e-104  -5.2276623450094908e-95  9.6790272626959722e-70  1.0328307375925049e-77  1.3692297794562442e-106  4.3949660385076414e-118  1.4867640344966485e-99  -7.9921033223664295e-126  1.9569657094827823e-71  1.3121935376132447e-59  -1.0132516694280413e-87  8.4423096858203521e-79  7.0570648603342216e-48  -9.4148201160497574e-95  -2.0792994946935868e-73  -2.1748759427397270e-68  -1.3717868023051180e-59  2.0863207771343586e-95  -2.5638663674646159e-104  3.0447070382360317e-98  2.9651606181618646e-87  4.3341977250016689e-61  9.5967001194662089e-128  8.0749993223848156e-128  7.5622578678972895e-120  7.7878063420961023e-90  -8.0696402270860415e-105  1.3831254527281645e-155  1.1037652631483558e-148  3.1693693402817989e-143  -9.7032134108478388e-138  -3.5570719004748627e-129  -5.5571446964378449e-119  -4.2485650240218391e-110  -3.2409985583360876e-99  8.9138810237266495e-91  -4.9639606970481760e-84  1.4221870927518783e-83  -2.4247814700648041e-83  -5.1009327477899450e-86  1.3480767524875242e-90  7.2282312143348300e-95  1.9389487289254720e-98  -3.8224852633227253e-105  -5.8957214061577193e-114  -2.8213300863188742e-122  -3.8971272008617878e-132  -4.1156497065585610e-142  2.5412243885936117e-152  1.2123737692241581e-157  2.5269081139794235e-158  -5.7519462854684025e-162  -2.2805391399896753e-165  1.7439035412488317e-160  1.6562867953251916e-149  4.6292139599241407e-144  8.9252038547458225e-140  -2.5303947913577043e-129  -7.7781138554695805e-124  -2.4813901236928474e-124  -2.9095105817676184e-119  -1.9140543276175852e-123  -5.4050922480534543e-128  -9.2898540788440715e-124  7.8855936194122104e-124  8.6158192556083056e-123  -2.1491007452214578e-123  9.8270129162395371e-127  2.5374688752055657e-123  -2.4606784832561450e-122  -5.7820291316317092e-119  1.2607726401135244e-114  4.7734491245132435e-113  -9.3063791214755419e-108  -1.9262356724380645e-99  3.3093565268773361e-96  1.9262452510713661e-99  1.9354639706299138e-103  2.