<?xml version="1.0"?>
<VTKFile type="UnstructuredGrid"  version="0.1"  >
<UnstructuredGrid>
<Piece  NumberOfPoints="2868" NumberOfCells="5400">
<Points>
<DataArray  type="Float64"  NumberOfComponents="3"  format="ascii">0.534923 0.326073 0  0.510642 0.314196 0  0.466125 0.293082 0  0.436448 0.281205 0  0.409468 0.275927 0  0.368998 0.270648 0  0.35281 0.275927 0  0.381139 0.302319 0  0.405421 0.326073 0  0.410817 0.33531 0  0.408119 0.349826 0  0.400025 0.357744 0  0.375743 0.368301 0  0.329878 0.392055 0  0.297502 0.432963 0  0.282663 0.476511 0  0.285361 0.524018 0  0.298851 0.572845 0  0.317737 0.6045160000000001 0  0.337972 0.6361869999999999 0  0.360904 0.674457 0  0.368998 0.69953 0  0.359555 0.7219640000000001 0  0.360904 0.757594 0  0.370347 0.766831 0  0.381139 0.762872 0  0.390582 0.741758 0  0.404072 0.720644 0  0.424307 0.707448 0  0.447239 0.702169 0  0.480964 0.704808 0  0.479615 0.6889729999999999 0  0.468823 0.675776 0  0.447239 0.6691780000000001 0  0.428354 0.6691780000000001 0  0.410817 0.6639 0  0.404072 0.653343 0  0.395978 0.628269 0  0.387884 0.59132 0  0.389233 0.576804 0  0.397327 0.557009 0  0.410817 0.547772 0  0.424307 0.546452 0  0.437797 0.55305 0  0.44589 0.5662469999999999 0  0.441843 0.582082 0  0.439145 0.5979179999999999 0  0.449937 0.609795 0  0.468823 0.603196 0  0.479615 0.59 0  0.489058 0.570205 0  0.494454 0.546452 0  0.505246 0.522699 0  0.522783 0.509502 0  0.55246 0.494986 0  0.586185 0.484429 0  0.615863 0.48047 0  0.64554 0.473872 0  0.6671240000000001 0.461995 0  0.683312 0.451438 0  0.696802 0.435603 0  0.703547 0.417128 0  0.7116400000000001 0.393374 0  0.7183850000000001 0.37226 0  0.7251300000000001 0.364342 0  0.739969 0.353785 0  0.7453650000000001 0.344548 0  0.7453650000000001 0.327393 0  0.737271 0.318155 0  0.7183850000000001 0.316835 0  0.7008490000000001 0.319475 0  0.677916 0.318155 0  0.650936 0.316835 0  0.610467 0.318155 0  0.57944 0.324753 0  0.559205 0.328712 0  0.5389699999999999 0.326073 0  1 1 0  1 0 0  0 0 0  0 1 0  0.532238 0.32476 0  0.528748 0.323052 0  0.52421 0.320833 0  0.518311 0.317947 0  0.503447 0.310783 0  0.494093 0.306347 0  0.481933 0.30058 0  0.452151 0.28749 0  0.392327 0.273691 0  0.379141 0.271971 0  0.360474 0.283066 0  0.369797 0.291752 0  0.391424 0.31238 0  0.399335 0.32012 0  0.40958 0.341964 0  0.393939 0.36039 0  0.386028 0.36383 0  0.364248 0.374254 0  0.349304 0.381994 0  0.315801 0.409841 0  0.292986 0.551616 0  0.350934 0.657818 0  0.360127 0.737055 0  0.360566 0.748664 0  0.385245 0.753692 0  0.396447 0.732578 0  0.466301 0.703661 0  0.459439 0.672908 0  0.418442 0.666195 0  0.400553 0.642441 0  0.39255 0.612619 0  0.389913 0.60058 0  0.392752 0.568197 0  0.444131 0.573132 0  0.458149 0.606926 0  0.5005540000000001 0.533026 0  0.571522 0.489019 0  0.632637 0.476741 0  0.689177 0.444553 0  0.708121 0.403702 0  0.715453 0.38144 0  0.732406 0.359166 0  0.7453650000000001 0.337089 0  0.72906 0.317581 0  0.629879 0.317522 0  0.59293 0.321884 0  0.568003 0.326991 0  0.55202 0.327775 0  0.546493 0.327054 0  0.542241 0.326499 0  1 0.9 0  1 0.8 0  1 0.7 0  1 0.6 0  1 0.5 0  1 0.4 0  1 0.3 0  1 0.2 0  1 0.1 0  0.9 0 0  0.8 0 0  0.7 0 0  0.6 0 0  0.5 0 0  0.4 0 0  0.3 0 0  0.2 0 0  0.1 0 0  0.1 1 0  0.2 1 0  0.3 1 0  0.4 1 0  0.5 1 0  0.6 1 0  0.7 1 0  0.8 1 0  0.9 1 0  0 0.1 0  0 0.2 0  0 0.3 0  0 0.4 0  0 0.5 0  0 0.6 0  0 0.7 0  0 0.8 0  0 0.9 0  0.535686 0.5031910000000001 0  0.753987 0.733359 0  0.167145 0.741436 0  0.173378 0.257204 0  0.733497 0.159862 0  0.554096 0.15788 0  0.849187 0.479053 0  0.488793 0.838452 0  0.138507 0.5592 0  0.30686 0.154944 0  0.348904 0.890523 0  0.058006 0.065099 0  0.06984899999999999 0.937917 0  0.93633 0.939704 0  0.934625 0.053613 0  0.343397 0.333452 0  0.473272 0.639943 0  0.433266 0.638072 0  0.415174 0.58269 0  0.533435 0.545042 0  0.390848 0.340652 0  0.53655 0.320242 0  0.127966 0.393775 0  0.83861 0.850455 0  0.635242 0.8551299999999999 0  0.852158 0.633441 0  0.653427 0.626848 0  0.861226 0.24292 0  0.166128 0.12976 0  0.216875 0.8698709999999999 0  0.458305 0.11179 0  0.84446 0.101633 0  0.202024 0.642528 0  0.644825 0.115855 0  0.671342 0.218358 0  0.251354 0.286186 0  0.262388 0.75153 0  0.063044 0.751571 0  0.068189 0.242962 0  0.435781 0.9053949999999999 0  0.934144 0.451133 0  0.568393 0.237622 0  0.814984 0.395506 0  0.752951 0.517227 0  0.456254 0.780699 0  0.073352 0.531116 0  0.337731 0.206071 0  0.363213 0.960371 0  0.330742 0.363592 0  0.516613 0.55705 0  0.369057 0.332992 0  0.500926 0.617309 0  0.498004 0.665534 0  0.412142 0.61178 0  0.454233 0.6366039999999999 0  0.422782 0.567496 0  0.541193 0.5214800000000001 0  0.439761 0.65557 0  0.5163 0.533672 0  0.414775 0.64562 0  0.40073 0.576135 0  0.430362 0.5880339999999999 0  0.385432 0.351492 0  0.400298 0.335397 0  0.398325 0.348194 0  0.528702 0.314885 0  0.540814 0.322334 0  0.534477 0.322953 0  0.619095 0.743583 0  0.885162 0.737972 0  0.08076 0.668849 0  0.90734 0.36634 0  0.09468699999999999 0.868937 0  0.759838 0.912152 0  0.901518 0.540898 0  0.747285 0.607479 0  0.229182 0.071641 0  0.06915399999999999 0.450091 0  0.244775 0.203309 0  0.076534 0.331755 0  0.897847 0.167826 0  0.578909 0.911415 0  0.07713299999999999 0.146341 0  0.477215 0.203448 0  0.922631 0.869341 0  0.517415 0.074785 0  0.297026 0.827793 0  0.7832710000000001 0.246505 0  0.74519 0.061079 0  0.36033 0.069068 0  0.210313 0.475228 0  0.859426 0.928758 0  0.5745479999999999 0.609182 0  0.243069 0.383398 0  0.283099 0.934598 0  0.417416 0.843141 0  0.643942 0.553164 0  0.112687 0.079336 0  0.281357 0.658386 0  0.765043 0.436177 0  0.611361 0.198486 0  0.234496 0.58911 0  0.206479 0.702638 0  0.679608 0.155818 0  0.62682 0.259978 0  0.690538 0.264164 0  0.448938 0.956308 0  0.808154 0.328403 0  0.379583 0.91913 0  0.308083 0.297769 0  0.312358 0.730249 0  0.563101 0.278576 0  0.435597 0.746198 0  0.385475 0.225229 0  0.572248 0.518034 0  0.357864 0.35422 0  0.497647 0.641694 0  0.458101 0.655768 0  0.360474 0.310727 0  0.467038 0.620139 0  0.47798 0.659909 0  0.41102 0.628072 0  0.48324 0.609015 0  0.427544 0.617941 0  0.388633 0.328253 0  0.405336 0.599404 0  0.408351 0.565178 0  0.42395 0.600985 0  0.431562 0.576523 0  0.424905 0.6551979999999999 0  0.398064 0.58782 0  0.427739 0.557934 0  0.5192909999999999 0.303443 0  0.53142 0.320293 0  0.5449000000000001 0.323642 0  0.537166 0.323513 0  0.153974 0.920841 0  0.9181859999999999 0.67343 0  0.759946 0.820588 0  0.5375259999999999 0.783091 0  0.816532 0.545843 0  0.813991 0.178083 0  0.836774 0.702023 0  0.149815 0.318856 0  0.662287 0.923338 0  0.680146 0.791192 0  0.708961 0.663172 0  0.9372779999999999 0.287318 0  0.574622 0.6881660000000001 0  0.5894740000000001 0.076262 0  0.502822 0.926683 0  0.222269 0.811068 0  0.380457 0.164786 0  0.15321 0.684154 0  0.458063 0.051413 0  0.161702 0.056026 0  0.199351 0.198818 0  0.298946 0.09553200000000001 0  0.902465 0.795949 0  0.121139 0.791477 0  0.906269 0.112287 0  0.056109 0.822332 0  0.512172 0.13237 0  0.940964 0.741805 0  0.888887 0.408777 0  0.354543 0.825964 0  0.808736 0.068638 0  0.068507 0.394071 0  0.719105 0.563843 0  0.247287 0.149664 0  0.293062 0.237128 0  0.240524 0.434997 0  0.141255 0.623289 0  0.945202 0.160621 0  0.502914 0.247629 0  0.144669 0.480811 0  0.665025 0.060817 0  0.728047 0.224344 0  0.861995 0.313312 0  0.200068 0.534235 0  0.253262 0.965623 0  0.893804 0.49307 0  0.604391 0.572456 0  0.947088 0.345347 0  0.439372 0.227307 0  0.629847 0.159823 0  0.273405 0.880181 0  0.302744 0.776823 0  0.781502 0.295365 0  0.275342 0.349602 0  0.7283849999999999 0.472798 0  0.229136 0.246478 0  0.807794 0.480346 0  0.709476 0.112786 0  0.275506 0.694991 0  0.771674 0.394419 0  0.449715 0.861802 0  0.419159 0.799696 0  0.674851 0.503139 0  0.280443 0.61016 0  0.572443 0.192538 0  0.393113 0.87525 0  0.405555 0.948428 0  0.330942 0.934103 0  0.540509 0.597101 0  0.312763 0.6689310000000001 0  0.254368 0.540179 0  0.595265 0.25915 0  0.606679 0.234099 0  0.657131 0.279138 0  0.722458 0.279478 0  0.333 0.308056 0  0.351529 0.246142 0  0.455714 0.7257940000000001 0  0.585239 0.295143 0  0.340062 0.72492 0  0.545593 0.293773 0  0.555449 0.545426 0  0.414311 0.737314 0  0.590854 0.502323 0  0.350507 0.368444 0  0.484423 0.625665 0  0.483899 0.674542 0  0.378137 0.317274 0  0.446416 0.646404 0  0.373532 0.347654 0  0.446876 0.619769 0  0.466106 0.666068 0  0.437545 0.609254 0  0.434988 0.565726 0  0.41462 0.656829 0  0.418803 0.556961 0  0.398425 0.327446 0  0.517803 0.310421 0  0.549516 0.322918 0  0.57701 0.842889 0  0.8291269999999999 0.773906 0  0.643235 0.684732 0  0.134281 0.207734 0  0.865997 0.055966 0  0.680959 0.723345 0  0.165229 0.8415550000000001 0  0.54558 0.959672 0  0.783726 0.656439 0  0.913315 0.595533 0  0.699439 0.860667 0  0.785839 0.125076 0  0.551673 0.037713 0  0.9200970000000001 0.223214 0  0.206406 0.299726 0  0.087064 0.596401 0  0.935644 0.394252 0  0.964557 0.252582 0  0.230124 0.928346 0  0.120579 0.271764 0  0.8572149999999999 0.524082 0  0.7670979999999999 0.5551469999999999 0  0.936094 0.507131 0  0.804064 0.59585 0  0.700565 0.608273 0  0.429773 0.174231 0  0.117746 0.727333 0  0.5389620000000001 0.730231 0  0.862761 0.359173 0  0.821444 0.284046 0  0.193552 0.35818 0  0.234923 0.505555 0  0.193209 0.421217 0  0.220144 0.755896 0  0.594015 0.131642 0  0.283813 0.195855 0  0.517519 0.213961 0  0.553509 0.639116 0  0.280391 0.378018 0  0.852183 0.436817 0  0.746983 0.197173 0  0.821806 0.221318 0  0.449853 0.828453 0  0.883758 0.453926 0  0.183484 0.589542 0  0.348384 0.129314 0  0.255254 0.838525 0  0.504849 0.798516 0  0.320344 0.863432 0  0.611669 0.525425 0  0.265864 0.804962 0  0.72056 0.521442 0  0.613372 0.6101220000000001 0  0.481262 0.881068 0  0.655778 0.191988 0  0.701921 0.196918 0  0.5658260000000001 0.5731810000000001 0  0.46914 0.240927 0  0.343219 0.173284 0  0.888786 0.278502 0  0.244113 0.6750930000000001 0  0.739546 0.417914 0  0.784023 0.355942 0  0.326805 0.265549 0  0.248616 0.6
[...]
<PointData  Scalars="f_17"> 
<DataArray  type="Float64"  Name="f_17"  format="ascii">9.4339475913551804e-153  -2.0325419863641650e-123  -7.1956202876005700e-87  -8.2003965639542422e-83  -1.6418561906573745e-82  -2.6289878597482752e-98  2.5403091484238839e-99  -5.0381348135279345e-127  -2.0387035252303989e-155  -9.6237332671427759e-157  -1.1048234066835125e-163  -7.5079922118636783e-163  2.0179752338962552e-143  5.2923673189667136e-123  7.1798582629653029e-119  1.2284806772410222e-126  -4.4784590466623182e-123  5.4257934838576189e-122  1.1071897306615174e-123  2.2907259771026577e-124  -3.2798568486663593e-122  -3.1436738349388108e-122  4.6865569141608603e-115  -3.1766299408628582e-103  -2.4249905643328400e-95  -6.8827089581262296e-97  5.3100408051254317e-98  -2.9362186490072450e-88  -1.1381086280820693e-88  1.3153036330431021e-81  9.7037368350936809e-68  -1.5037020669833316e-77  2.5827773492434047e-79  5.9843674342959704e-87  9.0591088526715117e-96  1.8086081286705123e-115  5.8977673753539501e-107  3.6860856546569408e-105  7.8129138792247342e-127  1.0552205583185677e-130  9.9571476534036477e-132  5.5774477704063573e-132  2.7704791837013277e-141  7.2859067186676995e-141  2.8113668642384300e-137  1.6948143386684500e-115  7.7309691874404048e-105  7.6434830272696096e-96  3.1388215829706804e-82  1.3985860107902485e-79  1.1514570846518961e-81  -9.3054338667683492e-80  3.8666545844758691e-88  9.7186099688375375e-81  6.1670976494649121e-72  9.1984486844892737e-72  2.3912095816028894e-72  1.1660161907752531e-67  -1.1902710229548792e-69  7.8504398646476277e-67  -1.4744451392253476e-59  1.4095293473753372e-62  2.1635533048491871e-69  2.1583678790657811e-87  1.1677475603725819e-79  5.2857904725297642e-69  4.1837049385291485e-71  4.4810090145614540e-67  5.8068530873058982e-68  3.0236509694639710e-72  -8.3806432356501474e-72  2.2334316852003078e-76  -6.7554164754536310e-75  4.5934367866017522e-74  8.3887564892762195e-92  6.8845679768796331e-113  5.0800346540819366e-142  6.4960562706044901e-05  6.3239155899988349e-05  -3.9426369654798014e-79  9.6935644623138346e-79  6.7172105024947795e-150  1.2221227504131673e-148  -9.5348215311806531e-138  -8.4801533822900686e-134  -1.1302242216653435e-114  -1.3645051781990051e-103  5.5966465697847952e-96  6.2292629066683068e-83  9.0599833727609783e-90  1.1750163721778331e-90  -8.0956875738301644e-110  -5.8026644444954445e-118  -9.5715948852994003e-137  -1.4808607899806141e-145  -1.1190004608475426e-156  -4.5666096550783139e-153  -1.2386619994485000e-144  8.3461714722824240e-133  1.1241234447858646e-123  -2.2039385942224690e-119  -3.3324971739622393e-123  1.7120959415103999e-122  -2.0928949852939233e-113  -5.5603391280558349e-112  1.6605535732589233e-99  7.5471677101772639e-90  1.1629490735981261e-76  2.5024788712320003e-87  2.3494787637306273e-105  7.9901044496605248e-105  2.9114081451056088e-105  3.9157313824047560e-116  1.8133598078287095e-131  2.0955772333819950e-126  4.3387514177057065e-88  2.2793821285724529e-89  1.1206101382910621e-71  5.6023167418004508e-68  -1.2931602411509219e-59  4.5270508300266157e-68  1.1110604620483097e-77  1.4102081956804227e-69  1.3277111078368413e-69  -4.0876833354829000e-73  2.6218202706826354e-74  2.2242338563448552e-82  1.8094546416716816e-101  2.0033691526893190e-120  4.4972468434186483e-130  1.9737383369183063e-140  1.0921981797716801e-04  1.3766146477179510e-04  1.0905702504166156e-04  1.2806661109015111e-04  9.8977423914829032e-05  1.0309350177121782e-04  8.0550788231173670e-05  8.9049777854498404e-05  1.1759320908514226e-04  7.2458858987111451e-10  -5.0043742656467528e-17  1.4696485441274843e-24  -4.6247620125061944e-32  -2.3799588309399090e-40  -4.9506204343104677e-48  -3.0836623726139638e-56  -1.0648972032785726e-63  -1.9296314760946782e-71  5.9756851594662889e-71  7.7917575671959784e-64  -1.5781213785404711e-55  6.5007386760303028e-47  -7.2665556732857640e-39  2.0258202710280635e-30  1.8517521848413078e-24  2.9822948959375051e-17  1.1631525961298006e-09  -2.1080924168689102e-81  -3.7589780276797140e-81  -1.0345125648504280e-86  6.4290343153956574e-94  -6.2450488261475428e-101  -4.9404435620266722e-101  5.7575706945893883e-94  1.0114478250724487e-87  6.9272531716098584e-82  2.1398080000190917e-80  6.0664657399846680e-19  2.5831918911256904e-89  -9.6725738235729996e-80  7.2817142976232206e-29  1.0758084098961517e-46  4.1488237211920653e-20  1.2201632998190145e-44  -1.5963275720181810e-108  2.7996339322246643e-68  4.1131196966618261e-55  -1.4464150727696001e-78  2.8910387099751523e-76  4.8315426417537403e-08  4.7215047150617230e-08  -4.3342668438376288e-114  7.1157585987833157e-70  3.5905559521946064e-87  1.0427256820270536e-112  1.5183890496951583e-70  -6.1523399906835185e-144  9.3700464053619035e-138  -4.0171735558438896e-93  2.9982913006322165e-13  1.4452317840978862e-29  6.7389967282145446e-13  -1.6165508916618415e-32  1.7817496470277605e-15  -2.2006127922485687e-69  3.6402112442854360e-72  -1.5245099998486547e-51  4.2778869354452547e-15  7.7112601441871673e-98  1.1477931608071828e-33  -2.2568079890780585e-44  -5.9200682737859272e-88  2.6946741347097385e-87  1.6812863546683036e-88  -7.4457683539229099e-81  2.9128593285396056e-43  1.2510812788274348e-07  -6.0549423387528904e-65  7.0538401093165590e-28  -2.9819051505948528e-34  1.2787723096886723e-60  2.3578909549771174e-107  -4.2060236337155760e-77  8.8566762328934933e-55  1.3140607196895413e-113  -1.9662389946116408e-70  -9.0575472928432838e-124  8.5164582370786801e-64  -6.3851864452865536e-61  2.1228906814848386e-103  2.0861759170684026e-78  3.4053938728177308e-122  9.1955013964774378e-72  1.1750300872665476e-86  4.0236239169300041e-79  2.1773111119202949e-96  2.1875937088846414e-122  8.4692765294140716e-113  -4.6203061409652622e-143  -9.9725673627378763e-146  -3.8663391147516779e-153  5.0997821001893883e-127  1.7829831278357100e-130  1.2912689706000440e-148  3.5749176249627598e-30  5.8042208328255730e-13  -2.2996127580490079e-95  4.6377469585443700e-14  1.0539793070481593e-76  1.1942712513564410e-18  1.9709600739258109e-13  8.6797841538332273e-25  -3.6658655505536397e-63  -6.5054162301523229e-100  -5.7618396899756957e-75  8.0285839375617854e-89  1.1492519147430587e-13  6.7935794888260041e-31  -2.5164284034855071e-75  4.6866472162508519e-60  1.2119048019722440e-07  8.7220859632414830e-46  2.1145690756973072e-67  1.0808821632343563e-28  -7.6135466812407038e-25  -1.6405144463106611e-55  3.4027355061770345e-108  1.4260600033398689e-13  3.9767992769065474e-45  -6.9903503321798930e-101  1.3950666934425418e-61  4.3580322215097952e-56  7.5301751111441517e-47  -8.6194730273416880e-75  4.6480269946402391e-106  1.6062125699248228e-40  -8.9640866624133413e-49  -9.7394494523329969e-106  3.0947612368386437e-91  4.7428596412921005e-34  9.9066585031480672e-58  1.2244392825691098e-50  5.8176850610911165e-43  1.1856908157171975e-33  2.1029812418744017e-49  -1.5563296265160791e-98  1.7882966843082475e-96  2.2065816588616760e-81  1.3760612852739699e-72  1.9400389756729052e-74  3.3198663557711800e-63  2.5821418923421259e-123  8.4123080288793866e-61  2.0939519812176835e-77  -6.9552921718747001e-117  1.3102027914083838e-78  5.8010959010492757e-69  6.6176715819600078e-96  3.7221339810753794e-73  1.0360773825316928e-94  -1.8731452587475306e-134  5.5413869042178205e-112  3.7122386418227316e-122  1.2734180767224806e-103  1.3179626756837918e-121  8.3892782584021190e-96  5.4404188286711898e-121  2.8651649138210462e-132  -1.4198758205105039e-116  4.7886294637556946e-138  1.2025218166609759e-129  9.4943162941094013e-142  1.1445597490561931e-70  2.2455613202552872e-07  6.6664217455460784e-19  2.4226743000583108e-43  5.3062441872390633e-21  3.3655767921677254e-21  2.7701604180582875e-13  -1.6322784786549868e-86  9.2610024786464316e-25  2.3434354240285050e-24  5.1150121581659100e-24  1.6738599967357154e-08  4.0625352485934149e-43  -1.1266376920633841e-38  5.0696802512065407e-37  7.5443521770493075e-78  -7.2489195616417305e-64  1.1954454305424448e-95  -2.0657104970759432e-47  -4.7945680560378308e-69  -3.1725505096320009e-73  -3.7496596732672747e-61  3.4579619525319289e-08  4.1161739629774612e-83  1.3349252914993327e-08  1.4672588501576142e-82  9.7590845799192120e-52  1.5124076575769950e-07  8.7481749019698769e-14  -2.3782771469272486e-65  1.5443495108428218e-20  1.8736821211271573e-95  2.6964907361182196e-32  -3.3190417393246676e-67  -7.6815070064255728e-82  -1.5926343851148218e-108  8.1413013362440002e-102  9.7209609217834381e-08  -2.1092845171930057e-77  1.0522143121764745e-100  9.6047875269570166e-32  1.9953577467803634e-40  3.6468974993751896e-20  1.6400731169091760e-108  3.1985611405702132e-63  7.2780318573004428e-14  2.6827855732056347e-47  1.1130139244527094e-07  1.0311910069154651e-66  5.4302463989884011e-40  1.7807212159146826e-66  -6.1470742517438243e-82  2.0690935537003543e-39  4.1915226607314540e-102  1.4571185991736159e-41  2.3403037612202279e-80  4.1833537020038951e-27  1.4535792999026224e-27  3.8774698347904498e-100  5.1124729816169897e-42  2.9243902352017055e-49  -1.0228178129972043e-65  -2.4296280475787390e-50  6.1025419858295801e-114  1.3439155145284406e-53  4.8734912070789974e-50  1.1976229442663850e-48  1.4424231266026723e-55  8.6099901763079807e-54  1.6520962701183465e-112  -8.7194696434236824e-114  4.8994600465222867e-66  8.0512976491775114e-57  8.1046116246283526e-58  5.1968994062031977e-52  1.3466589676711392e-107  -5.1695718320325265e-87  -2.2980498129664248e-72  1.1230396009854999e-73  -1.4521807749800245e-104  5.7092500711202111e-97  5.6623610478350988e-62  8.9559091686187285e-81  1.7248011037189913e-63  1.5262990009807046e-123  1.1548561838122372e-70  -8.7247787936433914e-70  -6.3885198288088549e-127  5.2075854467204484e-86  -3.0338045876454646e-133  1.5501996264593571e-86  1.9788888331804979e-78  8.5132202756476821e-96  4.2149631862664249e-131  1.2565361191718535e-105  2.7224330939006120e-131  -2.8004026044069690e-145  -2.4026524096498170e-123  3.7317317191748798e-119  2.9275662131375621e-35  2.2786785880157638e-14  4.9033248773506879e-30  -1.3424513388369041e-75  3.7401387595392112e-14  7.3734192663999298e-25  8.4707315300579945e-78  2.2278987499767708e-36  2.0295102161763290e-18  4.6719338391998277e-08  4.2008443016331043e-24  1.8168551223877429e-21  -1.9643137684418100e-39  1.2535555929276524e-08  1.0550188055398004e-86  -6.1459701698850043e-103  2.0854822793396942e-08  1.1002990068175122e-07  1.1763797621140834e-67  -2.0333633398703858e-82  1.3563205390979060e-19  3.3438440627961398e-26  1.8299244440875969e-08  3.7743269885269555e-19  3.8026086632032150e-31  -1.8068385943452590e-60  -2.2393643771942810e-90  -1.2156637867111047e-44  6.2235803397009846e-20  9.5966326191013325e-29  2.3348377215148646e-93  4.8581683352705272e-116  1.5125357054148499e-100  1.1479421967504723e-84  5.8196936142476667e-40  3.6166901603368012e-74  -1.4936481826567576e-60  -3.3255107063676365e-45  -1.1623813044778910e-110  3.8732112037280122e-20  1.7144830702003785e-33  3.2701492898159152e-21  1.6897674813569647e-51  3.7768385017929426e-14  1.5157562251188630e-104  -1.5968929524432594e-63  3.0703617082216349e-72  1.7135829318687355e-48  2.8530420198606974e-61  5.0357546069537007e-55  6.8237982789968022e-74  -1.7373290305906200e-40  -1.0275066237801408e-39  6.9750677723690288e-43  7.1294242325589615e-42  -9.7258537884098681e-37  -3.7466619102556218e-53  -1.3174759957587069e-67  -1.0164450333481058e-69  1.2283208741948089e-14  -1.5682149807085683e-98  9.7588765196299422e-49  -1.6528347806075266e-45  -4.1227076332251462e-93  -7.0482468001255693e-106  3.3222226738317720e-34  5.3505274180870751e-34  2.1957847224992816e-104  -6.7625706000391755e-78  -5.6825349089887592e-77  1.2450177173913777e-63  -1.1178756802228823e-114  3.1617622657063952e-81  -4.5226888691541774e-37  -5.1210804492645000e-50  1.0000453163036087e-56  6.1653300095277100e-105  2.0998161482684237e-51  1.5275739221126932e-50  -7.7397768013238465e-118  1.2068913999704918e-114  1.7204111662037972e-65  3.6751535481141814e-43  -2.3476027913770286e-81  1.4453973271268800e-84  2.2885709238809905e-90  5.6899180696243680e-74  5.0946277112195152e-59  2.5000544360723459e-56  6.7869814883738139e-64  2.9520945366882979e-64  -3.7069162893153774e-59  2.2831543077032366e-96  7.8492763660994571e-48  -1.0324136024135378e-88  5.6011440103673247e-50  -4.6966774188079317e-95  5.1192326907736591e-57  -8.5935294377780797e-79  6.9317602156305198e-82  -3.5941556506042437e-71  9.8979216876595976e-90  7.9364988776653559e-55  -6.3627168620943100e-80  -8.5594077779983575e-68  -8.1902392265143472e-109  -9.4608708254695885e-104  -3.1259361310013072e-102  4.6556176307397102e-83  6.2593628526033332e-134  2.4056384506603238e-114  -4.2347590850445257e-134  -2.0429625714122316e-126  1.4947975617113433e-07  2.9701764106457974e-30  2.9219449164908557e-14  1.5635777888146225e-37  4.9302755682652729e-15  1.9757028178664940e-83  1.2914752893614531e-38  4.5331402565599253e-37  1.4942399771021201e-41  4.9245154687871914e-45  4.5226378105500221e-26  3.9735422848168292e-50  1.6418808944573122e-37  -4.4593328141035405e-94  -9.6925381796745540e-58  1.6996502845771501e-27  1.1428958532413683e-57  1.9800301029016677e-46  2.9142849095962262e-36  -3.3418722900145996e-52  8.4365601419550536e-14  6.9070625524801479e-68  2.3660653556021031e-53  7.0622462279618943e-61  3.9409657687091054e-117  3.2885819376545063e-27  1.1194400917372829e-26  -4.4178725442831269e-92  -5.6321766756218596e-31  1.7622420517543197e-20  9.9190245467927450e-42  2.2272752838635788e-109  4.1798989881821420e-34  4.2692930990218107e-59  5.7677830783516170e-34  1.7468015522081415e-70  1.1436634975561382e-26  -7.2369796681960146e-55  2.5119602545006863e-21  1.7936439125720272e-44  -9.7421630233075579e-76  2.1892352228810546e-80  -1.8452560488723350e-82  1.6869638111448896e-68  -2.9563603385394663e-79  -1.5672194022627799e-88  -6.2547054832520769e-68  4.8599037302327188e-34  2.2613486884654611e-34  -2.0006897221947135e-74  2.2548851970051576e-89  1.6512859676467572e-42  7.0705342791446893e-54  -3.0019392114417519e-52  -4.7331567977119134e-111  5.3732878589059968e-27  5.4498466128439189e-81  -1.9379852128721775e-61  5.8283905169238386e-56  1.9648221130700714e-42  1.7366554762395055e-58  -4.6898867409272460e-58  1.4332910815949521e-74  4.9454236287524015e-113  2.9009486091780622e-42  1.6787529273340830e-35  4.0077909337293610e-66  2.5438499195662267e-64  -3.0087958890754034e-109  1.7274457420459065e-52  1.7214839460929654e-48  -9.0072873935849357e-59  -7.0015777228667111e-113  -3.5633676381608153e-52  -2.3571257854191959e-85  8.9478886962947996e-67  3.7780421590295185e-46  -2.2236852714966640e-66  -2.1596108442967011e-43  7.0392186668804569e-74  6.3393303270023762e-59  -1.0765659913581272e-101  9.4625952733687508e-86  1.0943356153802716e-76  2.6495355189398153e-72  4.1248357403375695e-93  -1.2471082563779026e-65  3.1765994817677694e-64  -4.6796646111092861e-79  1.4249874815078372e-88  -1.0293736161878613e-67  1.1681866906382592e-81  1.1992664455179563e-57  -4.0091540286541100e-93  5.3941420256542703e-73  2.2957521759106727e-68  -1.0811496137281888e-56  1.6344468774587622e-107  1.2862768276868079e-80  2.6671970054247128e-63  5.4568470008029475e-92  1.8477972850174142e-88  6.9809441906443018e-103  -2.1636837118428772e-112  -7.8650448969657448e-115  1.0534930769906508e-109  -2.1148535986933971e-53  2.2722911971199138e-16  7.9741910641305173e-37  9.6963005387186519e-40  8.8929459504930463e-29  -1.3438502205212820e-122  2.5993722445705804e-38  -3.9245134928889846e-71  -1.1346466901528270e-51  3.6900232788172242e-27  1.8996021126740145e-33  7.3922127913119035e-44  1.0899401601949630e-26  4.8500869917196313e-23  2.4088689637542310e-118  2.7640397602110497e-56  -7.7144348874710053e-60  4.0601034445472281e-68  -1.2794617864996153e-58  -4.0697332341511318e-52  -5.2352389900688965e-72  2.2859239956401965e-41  3.7484620658989894e-50  -1.1889123561861918e-58  2.3640573478484143e-69  7.7761874376879492e-53  -1.2494175156796296e-84  -9.0068177773949338e-104  5.6997444407549481e-76  1.8922678919766495e-61  2.2795978826731984e-36  9.3437470374539468e-76  -6.3462405516961376e-37  2.0718352993291816e-27  2.0611377355917694e-63  -7.1238080767644986e-75  9.5017205286668995e-121  2.9543571715713552e-50  5.0236300043942937e-42  -2.8951315204278788e-69  1.3107126339989158e-98  2.3627707789341327e-49  3.0254528316295649e-65  -1.1454194378285574e-51  2.4542236421954472e-62  -4.5372590146540982e-64  -8.1612164715789592e-70  8.2366083624709993e-95  1.4637746927467211e-83  -3.7656658323076593e-51  4.7227834894613772e-41  1.3378306920478646e-42  5.9610135228038248e-81  1.6314196611149897e-65  -5.4441611402503501e-63  2.0695855219247829e-77  1.2769872403002053e-49  3.4390084342697284e-90  -1.2937764995126893e-98  1.8886785793358515e-80  3.6982753188787223e-58  1.4352487625490219e-73  3.3611809085340470e-65  -3.1997135200024710e-89  1.6899597338288036e-59  1.2173267844921256e-101  3.2040714436337412e-93  2.1192676985063234e-50  1.1504088009052257e-67  9.1973806301118645e-71  2.7417408379821954e-54  -4.1434483090337822e-46  -1.6848796373032628e-54  -2.2055453770103156e-89  4.1149787637242094e-94  6.3685108416319152e-65  1.5548834636771740e-82  1.0117719633257715e-99  1.3814057833276710e-97  6.3796183543521233e-109  1.8849965058335625e-116  1.1883840063044775e-78  3.9790713503463102e-36  -5.4143683825708918e-47  -1.1168219463544518e-44  3.9669497262349077e-51  2.1570809459380337e-58  1.2250335527289374e-51  4.9714603720585956e-91  -1.0685604159447541e-59  -6.4824327552544246e-71  2.3939281290187875e-79  1.3868365167027772e-43  -1.8377070900607933e-71  2.2227180214629365e-51  1.6734392320360679e-35  -3.1557269697005939e-86  -7.2082509472209480e-75  1.5035130123610793e-59  2.2223580838196734e-85  3.3145544124118784e-73  -1.1303963432462600e-59  5.7784266156736162e-52  -3.7440766098886835e-68  -7.2339222314990377e-53  2.5861662843919880e-58  -2.5397498419636051e-89  3.1403698378913401e-95  3.1261338779114301e-86  4.9623084042721413e-61  8.1031192757999656e-62  1.7751128915596818e-104  -9.4012104647945978e-95  1.0913594397859468e-69  1.3282107184294114e-77  2.4498033904846073e-106  9.1272583070081170e-118  2.4492012382157619e-99  -1.5940440633646192e-126  2.5129947118273616e-71  1.3377623565692805e-59  -1.6572901008684711e-87  1.1185633079736812e-78  7.0560186288966504e-48  -1.5369699158531479e-94  -2.5973702237834730e-73  -2.2463100576479530e-68  -1.4051519195044864e-59  1.3481456562443643e-95  -3.1871762037991686e-104  7.7704127541991630e-98  3.9199798105986986e-87  4.6550867654259209e-61  2.3414691777698227e-127  1.9667524570199830e-127  1.6868316184626192e-119  1.1533259407561564e-89  -1.3801564533778495e-104  3.8578968384764307e-155  8.6684299838547553e-149  5.6756688887904196e-145  -7.4418362886632418e-137  -1.4351338466809371e-128  -1.5965471565892418e-118  -1.1623161787624168e-109  -6.0304484699994005e-99  1.1256620288983554e-90  -5.8554422339977906e-84  4.5796251881602316e-84  -1.5081818256218882e-82  2.2636352082604424e-86  7.9724089137336484e-90  7.2950892026434759e-95  -3.6252503269734649e-98  -5.0301712661498749e-106  -1.1752376790033695e-113  -1.7883555628359474e-122  -5.5702943967790954e-132  -2.2891442246594291e-141  -7.0905743139034818e-151  -1.2977759237067335e-155  -1.5785484240000414e-156  -3.9899328360038421e-160  -7.9997464380845969e-163  -3.7818565226384594e-158  -1.0696828165143436e-148  5.3569632679926902e-144  2.7636366298139350e-138  1.4459795500941950e-128  6.1598348547873575e-123  2.7460025339424827e-124  4.9248017358795906e-119  1.9527043961778688e-122  -4.5607436103603182e-127  -9.2098234970868251e-123  2.9666408714388964e-123  7.0145238581687143e-122  -8.7556336753674489e-123  3.2840093374761688e-126  1.6876042627112595e-122  -6.2076613618762801e-122  -2.1845195758004396e-118  2.1577430942132441e-114  9.1051584183903322e-113  -1.8055264864102932e-107  -2.9832589827084663e-99  5.2669242233658767e-96  1.1477748461731293e-99  6.1147708372447407e-103  6.776968862