<?xml version="1.0"?>
<VTKFile type="UnstructuredGrid"  version="0.1"  >
<UnstructuredGrid>
<Piece  NumberOfPoints="2868" NumberOfCells="5400">
<Points>
<DataArray  type="Float64"  NumberOfComponents="3"  format="ascii">0.534923 0.326073 0  0.510642 0.314196 0  0.466125 0.293082 0  0.436448 0.281205 0  0.409468 0.275927 0  0.368998 0.270648 0  0.35281 0.275927 0  0.381139 0.302319 0  0.405421 0.326073 0  0.410817 0.33531 0  0.408119 0.349826 0  0.400025 0.357744 0  0.375743 0.368301 0  0.329878 0.392055 0  0.297502 0.432963 0  0.282663 0.476511 0  0.285361 0.524018 0  0.298851 0.572845 0  0.317737 0.6045160000000001 0  0.337972 0.6361869999999999 0  0.360904 0.674457 0  0.368998 0.69953 0  0.359555 0.7219640000000001 0  0.360904 0.757594 0  0.370347 0.766831 0  0.381139 0.762872 0  0.390582 0.741758 0  0.404072 0.720644 0  0.424307 0.707448 0  0.447239 0.702169 0  0.480964 0.704808 0  0.479615 0.6889729999999999 0  0.468823 0.675776 0  0.447239 0.6691780000000001 0  0.428354 0.6691780000000001 0  0.410817 0.6639 0  0.404072 0.653343 0  0.395978 0.628269 0  0.387884 0.59132 0  0.389233 0.576804 0  0.397327 0.557009 0  0.410817 0.547772 0  0.424307 0.546452 0  0.437797 0.55305 0  0.44589 0.5662469999999999 0  0.441843 0.582082 0  0.439145 0.5979179999999999 0  0.449937 0.609795 0  0.468823 0.603196 0  0.479615 0.59 0  0.489058 0.570205 0  0.494454 0.546452 0  0.505246 0.522699 0  0.522783 0.509502 0  0.55246 0.494986 0  0.586185 0.484429 0  0.615863 0.48047 0  0.64554 0.473872 0  0.6671240000000001 0.461995 0  0.683312 0.451438 0  0.696802 0.435603 0  0.703547 0.417128 0  0.7116400000000001 0.393374 0  0.7183850000000001 0.37226 0  0.7251300000000001 0.364342 0  0.739969 0.353785 0  0.7453650000000001 0.344548 0  0.7453650000000001 0.327393 0  0.737271 0.318155 0  0.7183850000000001 0.316835 0  0.7008490000000001 0.319475 0  0.677916 0.318155 0  0.650936 0.316835 0  0.610467 0.318155 0  0.57944 0.324753 0  0.559205 0.328712 0  0.5389699999999999 0.326073 0  1 1 0  1 0 0  0 0 0  0 1 0  0.532238 0.32476 0  0.528748 0.323052 0  0.52421 0.320833 0  0.518311 0.317947 0  0.503447 0.310783 0  0.494093 0.306347 0  0.481933 0.30058 0  0.452151 0.28749 0  0.392327 0.273691 0  0.379141 0.271971 0  0.360474 0.283066 0  0.369797 0.291752 0  0.391424 0.31238 0  0.399335 0.32012 0  0.40958 0.341964 0  0.393939 0.36039 0  0.386028 0.36383 0  0.364248 0.374254 0  0.349304 0.381994 0  0.315801 0.409841 0  0.292986 0.551616 0  0.350934 0.657818 0  0.360127 0.737055 0  0.360566 0.748664 0  0.385245 0.753692 0  0.396447 0.732578 0  0.466301 0.703661 0  0.459439 0.672908 0  0.418442 0.666195 0  0.400553 0.642441 0  0.39255 0.612619 0  0.389913 0.60058 0  0.392752 0.568197 0  0.444131 0.573132 0  0.458149 0.606926 0  0.5005540000000001 0.533026 0  0.571522 0.489019 0  0.632637 0.476741 0  0.689177 0.444553 0  0.708121 0.403702 0  0.715453 0.38144 0  0.732406 0.359166 0  0.7453650000000001 0.337089 0  0.72906 0.317581 0  0.629879 0.317522 0  0.59293 0.321884 0  0.568003 0.326991 0  0.55202 0.327775 0  0.546493 0.327054 0  0.542241 0.326499 0  1 0.9 0  1 0.8 0  1 0.7 0  1 0.6 0  1 0.5 0  1 0.4 0  1 0.3 0  1 0.2 0  1 0.1 0  0.9 0 0  0.8 0 0  0.7 0 0  0.6 0 0  0.5 0 0  0.4 0 0  0.3 0 0  0.2 0 0  0.1 0 0  0.1 1 0  0.2 1 0  0.3 1 0  0.4 1 0  0.5 1 0  0.6 1 0  0.7 1 0  0.8 1 0  0.9 1 0  0 0.1 0  0 0.2 0  0 0.3 0  0 0.4 0  0 0.5 0  0 0.6 0  0 0.7 0  0 0.8 0  0 0.9 0  0.535686 0.5031910000000001 0  0.753987 0.733359 0  0.167145 0.741436 0  0.173378 0.257204 0  0.733497 0.159862 0  0.554096 0.15788 0  0.849187 0.479053 0  0.488793 0.838452 0  0.138507 0.5592 0  0.30686 0.154944 0  0.348904 0.890523 0  0.058006 0.065099 0  0.06984899999999999 0.937917 0  0.93633 0.939704 0  0.934625 0.053613 0  0.343397 0.333452 0  0.473272 0.639943 0  0.433266 0.638072 0  0.415174 0.58269 0  0.533435 0.545042 0  0.390848 0.340652 0  0.53655 0.320242 0  0.127966 0.393775 0  0.83861 0.850455 0  0.635242 0.8551299999999999 0  0.852158 0.633441 0  0.653427 0.626848 0  0.861226 0.24292 0  0.166128 0.12976 0  0.216875 0.8698709999999999 0  0.458305 0.11179 0  0.84446 0.101633 0  0.202024 0.642528 0  0.644825 0.115855 0  0.671342 0.218358 0  0.251354 0.286186 0  0.262388 0.75153 0  0.063044 0.751571 0  0.068189 0.242962 0  0.435781 0.9053949999999999 0  0.934144 0.451133 0  0.568393 0.237622 0  0.814984 0.395506 0  0.752951 0.517227 0  0.456254 0.780699 0  0.073352 0.531116 0  0.337731 0.206071 0  0.363213 0.960371 0  0.330742 0.363592 0  0.516613 0.55705 0  0.369057 0.332992 0  0.500926 0.617309 0  0.498004 0.665534 0  0.412142 0.61178 0  0.454233 0.6366039999999999 0  0.422782 0.567496 0  0.541193 0.5214800000000001 0  0.439761 0.65557 0  0.5163 0.533672 0  0.414775 0.64562 0  0.40073 0.576135 0  0.430362 0.5880339999999999 0  0.385432 0.351492 0  0.400298 0.335397 0  0.398325 0.348194 0  0.528702 0.314885 0  0.540814 0.322334 0  0.534477 0.322953 0  0.619095 0.743583 0  0.885162 0.737972 0  0.08076 0.668849 0  0.90734 0.36634 0  0.09468699999999999 0.868937 0  0.759838 0.912152 0  0.901518 0.540898 0  0.747285 0.607479 0  0.229182 0.071641 0  0.06915399999999999 0.450091 0  0.244775 0.203309 0  0.076534 0.331755 0  0.897847 0.167826 0  0.578909 0.911415 0  0.07713299999999999 0.146341 0  0.477215 0.203448 0  0.922631 0.869341 0  0.517415 0.074785 0  0.297026 0.827793 0  0.7832710000000001 0.246505 0  0.74519 0.061079 0  0.36033 0.069068 0  0.210313 0.475228 0  0.859426 0.928758 0  0.5745479999999999 0.609182 0  0.243069 0.383398 0  0.283099 0.934598 0  0.417416 0.843141 0  0.643942 0.553164 0  0.112687 0.079336 0  0.281357 0.658386 0  0.765043 0.436177 0  0.611361 0.198486 0  0.234496 0.58911 0  0.206479 0.702638 0  0.679608 0.155818 0  0.62682 0.259978 0  0.690538 0.264164 0  0.448938 0.956308 0  0.808154 0.328403 0  0.379583 0.91913 0  0.308083 0.297769 0  0.312358 0.730249 0  0.563101 0.278576 0  0.435597 0.746198 0  0.385475 0.225229 0  0.572248 0.518034 0  0.357864 0.35422 0  0.497647 0.641694 0  0.458101 0.655768 0  0.360474 0.310727 0  0.467038 0.620139 0  0.47798 0.659909 0  0.41102 0.628072 0  0.48324 0.609015 0  0.427544 0.617941 0  0.388633 0.328253 0  0.405336 0.599404 0  0.408351 0.565178 0  0.42395 0.600985 0  0.431562 0.576523 0  0.424905 0.6551979999999999 0  0.398064 0.58782 0  0.427739 0.557934 0  0.5192909999999999 0.303443 0  0.53142 0.320293 0  0.5449000000000001 0.323642 0  0.537166 0.323513 0  0.153974 0.920841 0  0.9181859999999999 0.67343 0  0.759946 0.820588 0  0.5375259999999999 0.783091 0  0.816532 0.545843 0  0.813991 0.178083 0  0.836774 0.702023 0  0.149815 0.318856 0  0.662287 0.923338 0  0.680146 0.791192 0  0.708961 0.663172 0  0.9372779999999999 0.287318 0  0.574622 0.6881660000000001 0  0.5894740000000001 0.076262 0  0.502822 0.926683 0  0.222269 0.811068 0  0.380457 0.164786 0  0.15321 0.684154 0  0.458063 0.051413 0  0.161702 0.056026 0  0.199351 0.198818 0  0.298946 0.09553200000000001 0  0.902465 0.795949 0  0.121139 0.791477 0  0.906269 0.112287 0  0.056109 0.822332 0  0.512172 0.13237 0  0.940964 0.741805 0  0.888887 0.408777 0  0.354543 0.825964 0  0.808736 0.068638 0  0.068507 0.394071 0  0.719105 0.563843 0  0.247287 0.149664 0  0.293062 0.237128 0  0.240524 0.434997 0  0.141255 0.623289 0  0.945202 0.160621 0  0.502914 0.247629 0  0.144669 0.480811 0  0.665025 0.060817 0  0.728047 0.224344 0  0.861995 0.313312 0  0.200068 0.534235 0  0.253262 0.965623 0  0.893804 0.49307 0  0.604391 0.572456 0  0.947088 0.345347 0  0.439372 0.227307 0  0.629847 0.159823 0  0.273405 0.880181 0  0.302744 0.776823 0  0.781502 0.295365 0  0.275342 0.349602 0  0.7283849999999999 0.472798 0  0.229136 0.246478 0  0.807794 0.480346 0  0.709476 0.112786 0  0.275506 0.694991 0  0.771674 0.394419 0  0.449715 0.861802 0  0.419159 0.799696 0  0.674851 0.503139 0  0.280443 0.61016 0  0.572443 0.192538 0  0.393113 0.87525 0  0.405555 0.948428 0  0.330942 0.934103 0  0.540509 0.597101 0  0.312763 0.6689310000000001 0  0.254368 0.540179 0  0.595265 0.25915 0  0.606679 0.234099 0  0.657131 0.279138 0  0.722458 0.279478 0  0.333 0.308056 0  0.351529 0.246142 0  0.455714 0.7257940000000001 0  0.585239 0.295143 0  0.340062 0.72492 0  0.545593 0.293773 0  0.555449 0.545426 0  0.414311 0.737314 0  0.590854 0.502323 0  0.350507 0.368444 0  0.484423 0.625665 0  0.483899 0.674542 0  0.378137 0.317274 0  0.446416 0.646404 0  0.373532 0.347654 0  0.446876 0.619769 0  0.466106 0.666068 0  0.437545 0.609254 0  0.434988 0.565726 0  0.41462 0.656829 0  0.418803 0.556961 0  0.398425 0.327446 0  0.517803 0.310421 0  0.549516 0.322918 0  0.57701 0.842889 0  0.8291269999999999 0.773906 0  0.643235 0.684732 0  0.134281 0.207734 0  0.865997 0.055966 0  0.680959 0.723345 0  0.165229 0.8415550000000001 0  0.54558 0.959672 0  0.783726 0.656439 0  0.913315 0.595533 0  0.699439 0.860667 0  0.785839 0.125076 0  0.551673 0.037713 0  0.9200970000000001 0.223214 0  0.206406 0.299726 0  0.087064 0.596401 0  0.935644 0.394252 0  0.964557 0.252582 0  0.230124 0.928346 0  0.120579 0.271764 0  0.8572149999999999 0.524082 0  0.7670979999999999 0.5551469999999999 0  0.936094 0.507131 0  0.804064 0.59585 0  0.700565 0.608273 0  0.429773 0.174231 0  0.117746 0.727333 0  0.5389620000000001 0.730231 0  0.862761 0.359173 0  0.821444 0.284046 0  0.193552 0.35818 0  0.234923 0.505555 0  0.193209 0.421217 0  0.220144 0.755896 0  0.594015 0.131642 0  0.283813 0.195855 0  0.517519 0.213961 0  0.553509 0.639116 0  0.280391 0.378018 0  0.852183 0.436817 0  0.746983 0.197173 0  0.821806 0.221318 0  0.449853 0.828453 0  0.883758 0.453926 0  0.183484 0.589542 0  0.348384 0.129314 0  0.255254 0.838525 0  0.504849 0.798516 0  0.320344 0.863432 0  0.611669 0.525425 0  0.265864 0.804962 0  0.72056 0.521442 0  0.613372 0.6101220000000001 0  0.481262 0.881068 0  0.655778 0.191988 0  0.701921 0.196918 0  0.5658260000000001 0.5731810000000001 0  0.46914 0.240927 0  0.343219 0.173284 0  0.888786 0.278502 0  0.244113 0.6750930000000001 0  0.739546 0.417914 0  0.784023 0.355942 0  0.326805 0.265549 0  0.248616 0.6
[...]
<PointData  Scalars="f_17"> 
<DataArray  type="Float64"  Name="f_17"  format="ascii">2.3312934189562703e-154  -4.5267139720392050e-125  6.7482934888089444e-86  -3.0255152016291751e-83  -5.1654339451840457e-82  6.0584515399393944e-98  -5.8181228796791259e-99  3.9636780212117735e-127  1.6407349594774079e-159  2.0404451600351784e-161  1.2613548623487061e-169  -9.1140438798623013e-169  -1.3452381424583889e-145  4.5334998126019750e-125  7.4935902228325611e-121  2.4431946602051419e-129  -3.8711788556449585e-126  6.8048303366331825e-124  -5.0257287981758886e-123  5.5606668968235806e-126  -5.1866961952143814e-123  -1.5724252176640585e-123  3.0724967110337149e-115  -6.8076445476481066e-104  -7.5370274263964916e-96  -3.4794951189066285e-97  3.4573465013035386e-99  -1.0754405785106284e-88  -2.6459983641567618e-89  5.1071771463832892e-82  6.2674152223756034e-68  -5.7666166491364385e-78  5.6749397450762382e-79  2.5337518939565794e-87  2.8666782844324845e-96  2.2036130580649167e-116  5.3305768935224384e-109  2.6672378227436900e-106  -5.6283588677401516e-128  -7.0935512819167159e-132  -6.8110336372350283e-133  -3.6350124377139966e-133  -8.4821058136339217e-143  -2.7972368981036498e-142  -1.5888843997252489e-138  -7.5253402234326796e-117  4.0942954739478104e-106  1.0664396481568581e-96  4.8788489731011852e-83  3.2573680392869071e-80  9.7396640116144222e-83  -4.7183051984379167e-80  1.0367008121774236e-88  -1.2892068679711086e-80  -4.7039944825565877e-73  1.6903735005819445e-72  4.7362724648906739e-73  -2.8879106849704092e-68  1.5157637927534282e-69  4.5594002507348413e-67  -7.7336651382735718e-60  9.6966302667699721e-63  9.7659588225322582e-70  8.3972178940967592e-88  5.8260768018692450e-80  3.2018662549601869e-69  2.4701333187661426e-71  2.2135107239552769e-67  1.4643834204133243e-67  2.3682236830355878e-72  -5.5612497823676966e-72  4.1396665363310766e-76  -3.9108248085124597e-75  2.3729504716077766e-74  1.2540474538141279e-92  -4.0001718563273630e-113  2.4131235071434858e-143  6.4960562703912994e-05  6.3239155897993417e-05  -3.4817233493083397e-80  9.3630188517706305e-80  3.0046951965343914e-152  3.1296328920526248e-149  8.6212302502379635e-138  -2.2444475708627790e-136  -6.1062349795676793e-116  -1.9347251330244175e-104  3.3114984222291196e-96  2.7462923698486924e-83  -1.0557290297243830e-90  1.1235386621326507e-90  -6.3071642129472162e-110  3.1875461023476950e-118  1.9420875425231552e-137  5.1341787322707870e-148  2.3317880079406441e-161  -4.9541765895287716e-157  -8.6322577531381720e-147  1.7564248121642121e-135  1.3231883049850165e-125  9.0194547154181012e-121  1.1177720158191367e-124  9.4135868896956738e-124  -2.8845530489033978e-114  -1.3029024779610654e-112  4.0586302335636990e-100  8.7703681225941228e-91  1.0398495469147598e-76  1.2635146764380788e-87  5.1890077035404881e-106  4.3309192120731701e-106  1.7236908996926154e-106  -1.9584873300687100e-117  -1.1907019276327501e-132  -1.5708616839806975e-127  6.8752746356399264e-89  4.6959139442556521e-89  1.4028930814857737e-72  -2.3658065331870921e-68  -1.2848969828651506e-59  2.2490795297307542e-68  4.8978818252002234e-78  8.3247711215233930e-70  8.3061261096898986e-70  -3.4491809472350440e-73  1.0561811444338323e-74  9.3365976471331900e-83  -8.4739111729284545e-102  9.9902023711571879e-122  2.6325766562124108e-131  8.1825334852581513e-142  1.0921981797051733e-04  1.3766146476012906e-04  1.0905702503476503e-04  1.2806661108061390e-04  9.8977423911619699e-05  1.0309350176761319e-04  8.0550788229715784e-05  8.9049777852312313e-05  1.1759320907919253e-04  7.2458831112621281e-10  -5.0268634456966414e-17  1.4141057869907622e-24  -3.9014957777337379e-32  -1.6724663344207247e-40  -2.9427711218228265e-48  -1.1109109015165095e-56  -3.2817225692227931e-64  -3.7455657213035220e-72  1.4035617741151426e-71  2.4626204518616655e-64  -3.0732457192293226e-56  3.3018100727837770e-47  -6.5701527877338266e-39  1.7355545649423251e-30  1.7943084346019949e-24  2.9311951477501718e-17  1.1631521747276629e-09  -2.3220802531128643e-82  -4.2596728541330258e-82  -4.8079308936590338e-88  2.6873686139178225e-95  2.8557630997988855e-103  1.1512913212750384e-101  -1.8969539549349429e-95  1.4578748668987863e-89  4.9383097473438593e-83  -1.4289051788367294e-80  6.0446156092912278e-19  6.2650464956226703e-90  -1.4488738745487982e-80  6.5414346263280871e-29  8.0717747761425477e-47  4.1352730160219908e-20  8.7831120106156236e-45  1.1608425042399640e-109  9.9561348775886833e-69  2.5711776575406481e-55  -1.3782342710855371e-79  4.2045363430280914e-77  4.8315422022490288e-08  4.7215043359885684e-08  1.4816636114021110e-114  2.8005772867486556e-70  8.8020718287347394e-88  -1.8379992632454511e-114  1.3561030320437382e-70  5.7638213540546067e-147  5.8184018378079476e-139  -8.8019829000433558e-95  2.9974237313314287e-13  1.3009053560745714e-29  6.7383687398734039e-13  -2.2704624807282991e-32  1.7812733175920755e-15  -5.4632506493712796e-70  1.6180775479093575e-72  -1.4137517979124896e-51  4.2768690300945842e-15  1.4530123626328346e-98  1.0080178142210729e-33  -1.7290214479649369e-44  -3.8962979509285946e-89  8.3409942409494676e-88  2.6828563659942517e-90  -8.0869330908923620e-82  2.1797497716645009e-43  1.2510812528729278e-07  -1.9750323404726711e-64  6.8828508001765457e-28  -2.7074324926336934e-34  6.8021249170179396e-61  -2.2044971284472039e-108  -4.2886669969725287e-77  6.8375190920991006e-55  -7.5369613519070325e-115  -1.1899279181187028e-70  -5.3168921971279597e-125  3.7582564696726108e-64  -2.3456455912086919e-61  1.4344484115300772e-104  6.8531780198460879e-79  -2.3485572871815546e-123  -1.2211831315220982e-71  5.1338499141725633e-87  2.2282746391558523e-79  3.2463549391204593e-97  -1.5259419743491514e-123  -1.5053849488170166e-114  -1.3567087512688698e-145  7.7579082670908193e-150  -6.3099419466828393e-158  1.2353695948247704e-127  1.5671824888451930e-131  3.8936157255031779e-150  3.2701652101430790e-30  5.8036837475997914e-13  3.7553885246938522e-96  4.6375026007105074e-14  1.6278757834285428e-77  1.1818654853115231e-18  1.9708780971968427e-13  8.3402069050633127e-25  -1.1232943131276278e-63  4.2745345474779947e-102  -1.0541398801107995e-75  1.5908173865069672e-89  1.1491157599475457e-13  5.9471423604789177e-31  -4.5585073156660478e-76  2.9284217955842081e-60  1.2119047108137438e-07  4.6601952174089216e-46  1.0700936533905002e-67  1.0128459444960688e-28  -6.5506510577013921e-25  -7.2702182093382833e-56  -1.3120842081975005e-110  1.4250503586726993e-13  4.3359661269592476e-45  -1.9704039225333663e-103  7.8232081510739789e-62  2.6047971199007388e-56  3.5462541774370965e-47  -1.4740341075846014e-75  8.5828508406929668e-107  1.3561539567465579e-40  -1.5111626047349007e-48  -1.9131837477780604e-106  7.6971448193438104e-92  3.9722354403181517e-34  6.3773511594666095e-58  8.5637913235610340e-51  4.3623233191356510e-43  1.0931555055793777e-33  1.4373144498663545e-49  -5.1326632641488328e-99  6.1042446797065329e-97  4.3753809068678526e-81  2.1363133169543269e-73  1.0650627583391161e-75  -2.9873480591547608e-64  2.3526116524777925e-124  4.6897582165886848e-61  1.0635983437089396e-77  1.0468180370891692e-117  3.4484221155737581e-79  3.8820733163092454e-69  1.0903149717844594e-96  8.9766108436069049e-74  1.6104617437561350e-95  1.5957628361501073e-136  -9.1308329002238504e-114  -2.5537081445814459e-123  8.2599656454155170e-105  -9.0735713719973338e-123  2.8769896489331380e-96  -3.7459814454358299e-122  -1.9657618956930792e-133  6.8046983368112658e-115  2.1332520434321727e-139  9.1208013309823044e-131  4.6798463313667834e-143  2.5395131352673267e-71  2.2455612226673502e-07  6.6146243558978762e-19  1.9236792466063277e-43  5.2879228570223308e-21  3.3556985064267661e-21  2.7699028396885455e-13  -1.2291615937687239e-87  8.7586893987292741e-25  2.2653796314901722e-24  4.9513701718314629e-24  1.6738599769285477e-08  3.0018840079824390e-43  -1.2335173268912534e-38  4.1076385025245260e-37  2.9024215152631739e-78  -7.3047200267605588e-64  1.8643304543773370e-96  -1.2395769412854567e-47  -1.1365505830008298e-69  -7.3875334484264704e-74  -1.4516932268291809e-61  3.4579616848678765e-08  3.5788892439021563e-84  1.3349251762131099e-08  1.2940865774426045e-83  3.7679680782815012e-52  1.5124076206594478e-07  8.7475044057546538e-14  -1.5536711009510483e-65  1.5280290664562524e-20  4.2328889408757985e-98  2.3236585979262441e-32  -1.0132391502184187e-67  -9.8568766018724058e-83  3.8939195542289610e-110  4.3252589533915514e-103  9.7209606996627656e-08  -8.8257058152582798e-78  -7.0767746646595479e-103  8.4868715974532995e-32  1.6804794486263258e-40  3.6375900431873714e-20  -5.9417818035389762e-111  1.3622092560374388e-63  7.2775111034796500e-14  2.1002368200093535e-47  1.1130139117628231e-07  6.1027973539107937e-67  4.2421344726854910e-40  9.0378663111028033e-67  -2.5192214682580534e-82  1.6453761557236980e-39  -1.0060831413918128e-103  1.2469500328855824e-41  4.5925990117871859e-81  4.0843977089430055e-27  1.3588220806548490e-27  6.6516591084016756e-101  4.3213889184509612e-42  1.9399757345907182e-49  -5.7118617028696711e-66  5.9658311877981750e-51  3.3002185974283118e-114  7.0404852707693629e-54  3.3084777755015514e-50  8.1771489590233267e-49  9.1144118462171586e-56  4.5816120480280669e-54  2.3764330042711407e-113  -4.0082792039663972e-115  2.1431499380209832e-65  8.5391182601666650e-57  5.4626441419628855e-58  3.9378032901660387e-52  2.4641101256302188e-108  -1.0735097974187049e-86  -1.0070142105765664e-72  5.5659338982565742e-74  -3.9414736835904996e-105  2.0299654424530931e-97  3.9909293771925734e-62  2.1559711024332498e-81  4.1523695463092892e-64  1.2124279601558256e-125  3.8884665438448381e-71  -3.1535384171270447e-70  1.8122900887351391e-127  2.1002460083749145e-86  -1.1625984821919139e-134  3.4458010251096520e-87  1.1779326056759438e-78  1.2367864963088493e-96  -2.8673506341118249e-132  2.6862323142462468e-106  -1.8342870689582806e-132  1.2528721987746181e-149  -7.5901954926825819e-125  4.2832211021161791e-120  2.4696028959247833e-35  2.2782226859364047e-14  4.4470362759057107e-30  -2.5017455472368304e-76  3.7369133505969561e-14  7.1759953432029534e-25  3.1670674377059476e-78  1.7739562126695014e-36  2.0210532426193608e-18  4.6719336631689807e-08  4.0160339407668906e-24  1.7890633300010965e-21  -1.4142856668171583e-39  1.2535555480087380e-08  1.1806446869789957e-87  2.5881161219740768e-104  2.0854822469715182e-08  1.1002990026686774e-07  5.8624132102474561e-68  -2.4001841131461895e-83  1.3529118626538221e-19  3.2059476846465943e-26  1.8299244180348573e-08  3.7578449007178189e-19  3.2732004407442483e-31  -9.9151105750839876e-60  4.2215578687146213e-91  -1.3420005139803805e-44  6.2017773009006625e-20  9.4540796886842466e-29  1.1428917378495548e-94  1.5871188181695153e-118  -8.3584984680849260e-103  3.6543679056154516e-85  4.7275360227498716e-40  9.5050187605532969e-75  -1.0004884018804126e-60  -2.7905472837078963e-45  -9.5375137472180120e-112  3.8598818011947417e-20  1.5826025905663889e-33  3.2507009818628953e-21  1.1021447621041361e-51  3.7765813074948308e-14  1.8700588956278645e-105  -1.1496514578835546e-63  1.3756470041647350e-72  1.2331166362241326e-48  1.6140190161811806e-61  7.6052967040207506e-56  3.0568641625503536e-74  -1.2690578875111804e-40  -8.5397288936718970e-40  5.1080028891895901e-43  4.9866929316696846e-42  -8.6345733775597705e-37  -3.2761867886144565e-53  -7.5422424326633328e-68  -8.9895897467063629e-70  1.2282379594391481e-14  -4.2390593860752859e-99  7.3659556411139571e-49  -1.5670138144239008e-45  -1.4347548892805255e-92  -2.1536231435009046e-106  3.0396267602463913e-34  4.9571345213674509e-34  4.8377081417436448e-105  -3.1213997914908415e-78  -1.3807894449312295e-77  6.6481101884869997e-64  -1.1080906504962733e-115  4.6336239389806053e-82  -3.6732214762312083e-37  -3.5337629690721966e-50  6.1754678395184987e-57  1.2198011961588441e-105  1.5535022158564256e-51  1.0340621675006590e-50  -4.7461500322792473e-119  2.7008703107368100e-115  9.9464645236310240e-66  3.0124193711026707e-43  -1.0257968991053559e-81  3.5060805068840045e-85  1.1825084884713432e-90  4.1851072927135676e-74  3.4251567736146004e-59  1.7142867107911767e-56  1.2303081445351454e-64  1.5394501462213318e-64  -2.8032779027437492e-59  -5.4154252070409957e-97  7.4895921382806354e-48  -3.4778358382264683e-89  3.8257925188002411e-50  -1.3123113325544168e-95  -4.3042144555711093e-57  -1.0487647617178472e-78  -1.5779238383890280e-82  -1.7642526131768194e-71  3.7876811547254044e-90  6.5645172189299059e-55  -2.6767710099369573e-80  -5.2441953002861339e-68  -1.4111118448817561e-108  -2.2637375844841120e-104  -7.2203273764112948e-103  -3.2581889113968807e-83  -3.3648536766952212e-135  4.9819767303524753e-115  -2.0660573329027548e-136  4.3019160391148530e-127  1.4947975488171719e-07  2.7224224143891788e-30  2.9217690444488858e-14  1.2469195218961533e-37  4.9297230223267778e-15  6.2388777534530688e-84  1.0225483307842500e-38  3.7818331988651049e-37  1.1735486830770329e-41  3.6571584186584468e-45  4.4261204010781196e-26  2.8496242609286842e-50  9.9528462923620931e-38  -2.5058001037593175e-95  -8.3250954056605129e-58  1.6650351891852818e-27  6.2213593371940093e-58  1.3913173490128928e-46  2.4613860654997322e-36  -3.0167070826812427e-52  8.4361364644389588e-14  6.3115326211645703e-69  1.6192892294894303e-53  4.0011135339294759e-61  1.5794013904713358e-119  3.1880611611988324e-27  1.0925446665774090e-26  -1.2111563598212172e-92  -5.4227591291760026e-31  1.7565720194248322e-20  1.7985873845402967e-42  -7.7355108886866414e-111  3.8642783422328380e-34  -1.5500925193250437e-59  5.1025530024867706e-34  8.8080063416810612e-71  1.1128340260795391e-26  -5.4948792626861091e-55  2.5074320690381813e-21  1.3906985974735092e-44  -4.5817957213986715e-76  8.6164192419871184e-81  -6.2804946026198534e-83  8.4843521754052152e-69  -1.2134008959694299e-79  -4.2134673203266330e-89  -3.8282902296673953e-68  4.3819407820866876e-34  2.1074152762573241e-34  -9.2296791936530476e-75  8.0862903579525895e-90  1.3658241144800235e-42  5.3917501867316695e-54  -2.0042682638314433e-52  2.9249780610417032e-112  5.2194005038267131e-27  1.9986640782319777e-81  -1.3365827644131915e-61  3.0452981378539029e-56  1.5389494670076568e-42  1.0528767709070240e-58  -3.0864164588842205e-58  6.3761572342780087e-75  6.3512697282109898e-114  2.4424908290780860e-42  1.5547348593429593e-35  2.2743222935676366e-66  4.5452576046756183e-65  2.0535691827372293e-110  1.3567297049285529e-52  1.2714227007412820e-48  -6.1874235723271115e-59  -1.6151485655828448e-113  -2.6031311716081053e-52  -2.3107742609728152e-87  4.5908742931189322e-67  -6.0165569665862593e-47  -1.5480448700061384e-66  -1.8539250839160372e-43  2.2895603838029603e-74  3.7443894049362257e-59  -7.3641373791622367e-101  3.7868949303360665e-86  9.6876126838532424e-77  1.4892191863720857e-72  1.0044122225697540e-92  -8.0015892054488223e-66  6.7047266042811448e-64  -8.0697572831703705e-79  1.2011973792379044e-89  -4.9347723137194153e-68  2.8942575211084519e-81  8.1635727477514972e-58  -1.4046380057272989e-93  9.2370012838144968e-74  1.3337591722191031e-68  -8.6091039775712984e-57  4.0174537093490605e-108  6.0155546767609079e-81  2.2748311684738438e-63  -3.3168852726579500e-92  7.5785716311184243e-89  1.6414929650689055e-103  -1.8083852053476631e-113  -1.8521361079394173e-115  1.1818774008516270e-110  -1.1194419312699441e-53  2.2643411683827237e-16  6.8470889720784199e-37  8.8251921577689384e-40  8.4585776852269151e-29  -1.4309130800714788e-124  2.0357982349415123e-38  -4.1870601171430460e-71  -8.4942345416197833e-52  3.6129082890154119e-27  1.7502398716799388e-33  5.8792343239749713e-44  1.0637523796354180e-26  4.7999759311249151e-23  1.8890850163736597e-120  1.8013519577623947e-56  -5.5879311077126901e-60  1.6817173077659375e-68  -8.1494444880785587e-59  -2.8481778031495711e-52  -2.5646106070518025e-72  1.9711539467792876e-41  -1.2058206401027390e-50  3.8405910207817346e-59  1.4448705742141784e-69  6.3661932885685426e-53  -1.8698402413816569e-84  -1.1424779478152106e-105  2.5899324152965742e-76  4.8504457547884067e-62  1.8200932418828576e-36  2.4127576756865867e-77  -5.3203476417729220e-37  2.0170905397475246e-27  1.1643575753139669e-63  -3.2856800729594492e-75  6.7865751884925017e-122  2.2465650629431196e-50  4.3258379481597097e-42  -1.9547781001040134e-69  -3.5112918925791571e-99  2.7782441833352941e-49  1.3048881351291234e-65  -8.0349946814452268e-52  9.8195239833188792e-63  -2.6516640079114093e-64  -3.5848164348915041e-71  -4.6321427754518869e-95  4.9669768430797072e-84  -2.8583071214171856e-51  4.0307392775335625e-41  1.0579520133614655e-42  2.7144454213952702e-81  8.9164399180128863e-66  -4.1453692056682581e-63  1.7070370506454438e-78  1.0053497551472348e-49  -2.1267174740014498e-90  -2.6236277493089369e-99  4.6772866413205629e-81  2.4046988453685355e-58  1.9604362088680565e-74  2.1104065546297154e-65  -2.9501586290729176e-88  1.1582102759250809e-59  9.3034283118582120e-101  7.0177104352072059e-94  1.6326678612403123e-50  6.3357384834801436e-68  2.9626300407986652e-71  2.8377453606424204e-54  -5.2007067160770178e-46  -1.3395703027487365e-54  3.6276601615420997e-89  1.2916937051111080e-94  -4.2903026281207661e-65  6.5175612121911759e-83  2.4339294022797830e-100  4.4591264739609614e-98  1.3149378978491559e-109  3.2389848359094364e-117  5.9590984782937925e-79  3.3883420904759588e-36  -2.8532684694371321e-47  -1.0200112098451507e-44  2.6206527198507667e-51  7.0258556470381274e-59  9.5642469007098308e-52  -4.2603555844194774e-91  -7.3527370662488270e-60  -3.4287235748036206e-71  9.5106253687576659e-80  1.1957126433206405e-43  -9.0575884594306031e-72  1.5491580918186235e-51  1.5341242216071060e-35  -1.1879097420006262e-86  -2.5373080397307935e-75  -6.8687961419893230e-60  1.0089116514022223e-85  1.7627839661647911e-73  -7.5798250113938801e-60  4.5845834567657908e-52  -2.0694280216618132e-68  -9.9215518480352923e-53  1.6901129409716026e-58  -9.6650236285897332e-90  1.1426092372676702e-97  -4.2741020618930706e-86  3.3986188943729768e-61  5.4664527607571509e-62  1.0745511783426475e-104  -2.4043533097238131e-95  6.4557274984138855e-70  6.3474669856381768e-78  6.1279038630473560e-107  1.5736258239592444e-118  7.4947864905045350e-100  -6.8777942808203555e-126  1.2032314196132073e-71  9.3227902431880441e-60  -5.1563803848190902e-88  5.0865633623080566e-79  6.5568947923031378e-48  -4.7986513732027910e-95  -1.3004900312089985e-73  -1.5079637355958197e-68  -1.0008060905485516e-59  1.6915799603159537e-95  -1.6295939570171617e-104  7.0160643173383428e-99  1.7889493033682886e-87  3.0430830083101262e-61  2.5453933449162338e-128  2.1558878094998454e-128  2.4117919199499505e-120  4.3275464498198354e-90  -3.9386965659893560e-105  2.9480869564256430e-157  1.0154364584049941e-149  8.3158941467780008e-144  1.2254511294873364e-137  -1.2479811753930630e-130  -8.3980113484209476e-120  -6.8842011720360884e-111  -1.4258922886873724e-99  5.5388902894000963e-91  -3.2039693633414830e-84  1.0307266226861119e-83  -1.3978619383751711e-84  -4.6687133330012371e-86  8.0993231315872098e-91  9.9594751961181636e-95  3.5171335423845093e-98  -3.6760470421996054e-104  -6.5247029811235546e-115  1.8498720546845686e-122  2.3716846248184858e-132  1.0725239387928550e-142  7.1910340404959509e-154  3.9346154275184411e-160  3.3189351184729646e-161  5.1751959563293700e-165  -5.4175062149368411e-169  -4.3505583349941667e-163  -8.7460627315186430e-152  -7.9952975326436636e-146  -9.2876765760987390e-141  1.0617877058772253e-130  5.7569668815520895e-125  -6.3047229087287173e-127  1.6192798369972301e-120  1.0376248839048304e-124  -2.6198439149892252e-130  9.0099144091057260e-125  -4.7754043647226201e-125  -4.6956720459848933e-123  3.7370086143147608e-124  1.1246219331913347e-127  -9.5975062664211895e-124  -4.5076257303407618e-123  7.0100985420925888e-120  5.9166175878927051e-115  2.0225156706030965e-113  -3.8668455024545876e-108  -1.0310253481708462e-99  1.7288571266073260e-96  1.5880490130484095e-99  8.203199301982