<?xml version="1.0"?>
<VTKFile type="UnstructuredGrid"  version="0.1"  >
<UnstructuredGrid>
<Piece  NumberOfPoints="2868" NumberOfCells="5400">
<Points>
<DataArray  type="Float64"  NumberOfComponents="3"  format="ascii">0.534923 0.326073 0  0.510642 0.314196 0  0.466125 0.293082 0  0.436448 0.281205 0  0.409468 0.275927 0  0.368998 0.270648 0  0.35281 0.275927 0  0.381139 0.302319 0  0.405421 0.326073 0  0.410817 0.33531 0  0.408119 0.349826 0  0.400025 0.357744 0  0.375743 0.368301 0  0.329878 0.392055 0  0.297502 0.432963 0  0.282663 0.476511 0  0.285361 0.524018 0  0.298851 0.572845 0  0.317737 0.6045160000000001 0  0.337972 0.6361869999999999 0  0.360904 0.674457 0  0.368998 0.69953 0  0.359555 0.7219640000000001 0  0.360904 0.757594 0  0.370347 0.766831 0  0.381139 0.762872 0  0.390582 0.741758 0  0.404072 0.720644 0  0.424307 0.707448 0  0.447239 0.702169 0  0.480964 0.704808 0  0.479615 0.6889729999999999 0  0.468823 0.675776 0  0.447239 0.6691780000000001 0  0.428354 0.6691780000000001 0  0.410817 0.6639 0  0.404072 0.653343 0  0.395978 0.628269 0  0.387884 0.59132 0  0.389233 0.576804 0  0.397327 0.557009 0  0.410817 0.547772 0  0.424307 0.546452 0  0.437797 0.55305 0  0.44589 0.5662469999999999 0  0.441843 0.582082 0  0.439145 0.5979179999999999 0  0.449937 0.609795 0  0.468823 0.603196 0  0.479615 0.59 0  0.489058 0.570205 0  0.494454 0.546452 0  0.505246 0.522699 0  0.522783 0.509502 0  0.55246 0.494986 0  0.586185 0.484429 0  0.615863 0.48047 0  0.64554 0.473872 0  0.6671240000000001 0.461995 0  0.683312 0.451438 0  0.696802 0.435603 0  0.703547 0.417128 0  0.7116400000000001 0.393374 0  0.7183850000000001 0.37226 0  0.7251300000000001 0.364342 0  0.739969 0.353785 0  0.7453650000000001 0.344548 0  0.7453650000000001 0.327393 0  0.737271 0.318155 0  0.7183850000000001 0.316835 0  0.7008490000000001 0.319475 0  0.677916 0.318155 0  0.650936 0.316835 0  0.610467 0.318155 0  0.57944 0.324753 0  0.559205 0.328712 0  0.5389699999999999 0.326073 0  1 1 0  1 0 0  0 0 0  0 1 0  0.532238 0.32476 0  0.528748 0.323052 0  0.52421 0.320833 0  0.518311 0.317947 0  0.503447 0.310783 0  0.494093 0.306347 0  0.481933 0.30058 0  0.452151 0.28749 0  0.392327 0.273691 0  0.379141 0.271971 0  0.360474 0.283066 0  0.369797 0.291752 0  0.391424 0.31238 0  0.399335 0.32012 0  0.40958 0.341964 0  0.393939 0.36039 0  0.386028 0.36383 0  0.364248 0.374254 0  0.349304 0.381994 0  0.315801 0.409841 0  0.292986 0.551616 0  0.350934 0.657818 0  0.360127 0.737055 0  0.360566 0.748664 0  0.385245 0.753692 0  0.396447 0.732578 0  0.466301 0.703661 0  0.459439 0.672908 0  0.418442 0.666195 0  0.400553 0.642441 0  0.39255 0.612619 0  0.389913 0.60058 0  0.392752 0.568197 0  0.444131 0.573132 0  0.458149 0.606926 0  0.5005540000000001 0.533026 0  0.571522 0.489019 0  0.632637 0.476741 0  0.689177 0.444553 0  0.708121 0.403702 0  0.715453 0.38144 0  0.732406 0.359166 0  0.7453650000000001 0.337089 0  0.72906 0.317581 0  0.629879 0.317522 0  0.59293 0.321884 0  0.568003 0.326991 0  0.55202 0.327775 0  0.546493 0.327054 0  0.542241 0.326499 0  1 0.9 0  1 0.8 0  1 0.7 0  1 0.6 0  1 0.5 0  1 0.4 0  1 0.3 0  1 0.2 0  1 0.1 0  0.9 0 0  0.8 0 0  0.7 0 0  0.6 0 0  0.5 0 0  0.4 0 0  0.3 0 0  0.2 0 0  0.1 0 0  0.1 1 0  0.2 1 0  0.3 1 0  0.4 1 0  0.5 1 0  0.6 1 0  0.7 1 0  0.8 1 0  0.9 1 0  0 0.1 0  0 0.2 0  0 0.3 0  0 0.4 0  0 0.5 0  0 0.6 0  0 0.7 0  0 0.8 0  0 0.9 0  0.535686 0.5031910000000001 0  0.753987 0.733359 0  0.167145 0.741436 0  0.173378 0.257204 0  0.733497 0.159862 0  0.554096 0.15788 0  0.849187 0.479053 0  0.488793 0.838452 0  0.138507 0.5592 0  0.30686 0.154944 0  0.348904 0.890523 0  0.058006 0.065099 0  0.06984899999999999 0.937917 0  0.93633 0.939704 0  0.934625 0.053613 0  0.343397 0.333452 0  0.473272 0.639943 0  0.433266 0.638072 0  0.415174 0.58269 0  0.533435 0.545042 0  0.390848 0.340652 0  0.53655 0.320242 0  0.127966 0.393775 0  0.83861 0.850455 0  0.635242 0.8551299999999999 0  0.852158 0.633441 0  0.653427 0.626848 0  0.861226 0.24292 0  0.166128 0.12976 0  0.216875 0.8698709999999999 0  0.458305 0.11179 0  0.84446 0.101633 0  0.202024 0.642528 0  0.644825 0.115855 0  0.671342 0.218358 0  0.251354 0.286186 0  0.262388 0.75153 0  0.063044 0.751571 0  0.068189 0.242962 0  0.435781 0.9053949999999999 0  0.934144 0.451133 0  0.568393 0.237622 0  0.814984 0.395506 0  0.752951 0.517227 0  0.456254 0.780699 0  0.073352 0.531116 0  0.337731 0.206071 0  0.363213 0.960371 0  0.330742 0.363592 0  0.516613 0.55705 0  0.369057 0.332992 0  0.500926 0.617309 0  0.498004 0.665534 0  0.412142 0.61178 0  0.454233 0.6366039999999999 0  0.422782 0.567496 0  0.541193 0.5214800000000001 0  0.439761 0.65557 0  0.5163 0.533672 0  0.414775 0.64562 0  0.40073 0.576135 0  0.430362 0.5880339999999999 0  0.385432 0.351492 0  0.400298 0.335397 0  0.398325 0.348194 0  0.528702 0.314885 0  0.540814 0.322334 0  0.534477 0.322953 0  0.619095 0.743583 0  0.885162 0.737972 0  0.08076 0.668849 0  0.90734 0.36634 0  0.09468699999999999 0.868937 0  0.759838 0.912152 0  0.901518 0.540898 0  0.747285 0.607479 0  0.229182 0.071641 0  0.06915399999999999 0.450091 0  0.244775 0.203309 0  0.076534 0.331755 0  0.897847 0.167826 0  0.578909 0.911415 0  0.07713299999999999 0.146341 0  0.477215 0.203448 0  0.922631 0.869341 0  0.517415 0.074785 0  0.297026 0.827793 0  0.7832710000000001 0.246505 0  0.74519 0.061079 0  0.36033 0.069068 0  0.210313 0.475228 0  0.859426 0.928758 0  0.5745479999999999 0.609182 0  0.243069 0.383398 0  0.283099 0.934598 0  0.417416 0.843141 0  0.643942 0.553164 0  0.112687 0.079336 0  0.281357 0.658386 0  0.765043 0.436177 0  0.611361 0.198486 0  0.234496 0.58911 0  0.206479 0.702638 0  0.679608 0.155818 0  0.62682 0.259978 0  0.690538 0.264164 0  0.448938 0.956308 0  0.808154 0.328403 0  0.379583 0.91913 0  0.308083 0.297769 0  0.312358 0.730249 0  0.563101 0.278576 0  0.435597 0.746198 0  0.385475 0.225229 0  0.572248 0.518034 0  0.357864 0.35422 0  0.497647 0.641694 0  0.458101 0.655768 0  0.360474 0.310727 0  0.467038 0.620139 0  0.47798 0.659909 0  0.41102 0.628072 0  0.48324 0.609015 0  0.427544 0.617941 0  0.388633 0.328253 0  0.405336 0.599404 0  0.408351 0.565178 0  0.42395 0.600985 0  0.431562 0.576523 0  0.424905 0.6551979999999999 0  0.398064 0.58782 0  0.427739 0.557934 0  0.5192909999999999 0.303443 0  0.53142 0.320293 0  0.5449000000000001 0.323642 0  0.537166 0.323513 0  0.153974 0.920841 0  0.9181859999999999 0.67343 0  0.759946 0.820588 0  0.5375259999999999 0.783091 0  0.816532 0.545843 0  0.813991 0.178083 0  0.836774 0.702023 0  0.149815 0.318856 0  0.662287 0.923338 0  0.680146 0.791192 0  0.708961 0.663172 0  0.9372779999999999 0.287318 0  0.574622 0.6881660000000001 0  0.5894740000000001 0.076262 0  0.502822 0.926683 0  0.222269 0.811068 0  0.380457 0.164786 0  0.15321 0.684154 0  0.458063 0.051413 0  0.161702 0.056026 0  0.199351 0.198818 0  0.298946 0.09553200000000001 0  0.902465 0.795949 0  0.121139 0.791477 0  0.906269 0.112287 0  0.056109 0.822332 0  0.512172 0.13237 0  0.940964 0.741805 0  0.888887 0.408777 0  0.354543 0.825964 0  0.808736 0.068638 0  0.068507 0.394071 0  0.719105 0.563843 0  0.247287 0.149664 0  0.293062 0.237128 0  0.240524 0.434997 0  0.141255 0.623289 0  0.945202 0.160621 0  0.502914 0.247629 0  0.144669 0.480811 0  0.665025 0.060817 0  0.728047 0.224344 0  0.861995 0.313312 0  0.200068 0.534235 0  0.253262 0.965623 0  0.893804 0.49307 0  0.604391 0.572456 0  0.947088 0.345347 0  0.439372 0.227307 0  0.629847 0.159823 0  0.273405 0.880181 0  0.302744 0.776823 0  0.781502 0.295365 0  0.275342 0.349602 0  0.7283849999999999 0.472798 0  0.229136 0.246478 0  0.807794 0.480346 0  0.709476 0.112786 0  0.275506 0.694991 0  0.771674 0.394419 0  0.449715 0.861802 0  0.419159 0.799696 0  0.674851 0.503139 0  0.280443 0.61016 0  0.572443 0.192538 0  0.393113 0.87525 0  0.405555 0.948428 0  0.330942 0.934103 0  0.540509 0.597101 0  0.312763 0.6689310000000001 0  0.254368 0.540179 0  0.595265 0.25915 0  0.606679 0.234099 0  0.657131 0.279138 0  0.722458 0.279478 0  0.333 0.308056 0  0.351529 0.246142 0  0.455714 0.7257940000000001 0  0.585239 0.295143 0  0.340062 0.72492 0  0.545593 0.293773 0  0.555449 0.545426 0  0.414311 0.737314 0  0.590854 0.502323 0  0.350507 0.368444 0  0.484423 0.625665 0  0.483899 0.674542 0  0.378137 0.317274 0  0.446416 0.646404 0  0.373532 0.347654 0  0.446876 0.619769 0  0.466106 0.666068 0  0.437545 0.609254 0  0.434988 0.565726 0  0.41462 0.656829 0  0.418803 0.556961 0  0.398425 0.327446 0  0.517803 0.310421 0  0.549516 0.322918 0  0.57701 0.842889 0  0.8291269999999999 0.773906 0  0.643235 0.684732 0  0.134281 0.207734 0  0.865997 0.055966 0  0.680959 0.723345 0  0.165229 0.8415550000000001 0  0.54558 0.959672 0  0.783726 0.656439 0  0.913315 0.595533 0  0.699439 0.860667 0  0.785839 0.125076 0  0.551673 0.037713 0  0.9200970000000001 0.223214 0  0.206406 0.299726 0  0.087064 0.596401 0  0.935644 0.394252 0  0.964557 0.252582 0  0.230124 0.928346 0  0.120579 0.271764 0  0.8572149999999999 0.524082 0  0.7670979999999999 0.5551469999999999 0  0.936094 0.507131 0  0.804064 0.59585 0  0.700565 0.608273 0  0.429773 0.174231 0  0.117746 0.727333 0  0.5389620000000001 0.730231 0  0.862761 0.359173 0  0.821444 0.284046 0  0.193552 0.35818 0  0.234923 0.505555 0  0.193209 0.421217 0  0.220144 0.755896 0  0.594015 0.131642 0  0.283813 0.195855 0  0.517519 0.213961 0  0.553509 0.639116 0  0.280391 0.378018 0  0.852183 0.436817 0  0.746983 0.197173 0  0.821806 0.221318 0  0.449853 0.828453 0  0.883758 0.453926 0  0.183484 0.589542 0  0.348384 0.129314 0  0.255254 0.838525 0  0.504849 0.798516 0  0.320344 0.863432 0  0.611669 0.525425 0  0.265864 0.804962 0  0.72056 0.521442 0  0.613372 0.6101220000000001 0  0.481262 0.881068 0  0.655778 0.191988 0  0.701921 0.196918 0  0.5658260000000001 0.5731810000000001 0  0.46914 0.240927 0  0.343219 0.173284 0  0.888786 0.278502 0  0.244113 0.6750930000000001 0  0.739546 0.417914 0  0.784023 0.355942 0  0.326805 0.265549 0  0.248616 0.6
[...]
<PointData  Scalars="f_17"> 
<DataArray  type="Float64"  Name="f_17"  format="ascii">3.6714201503821386e-156  4.6230041842103849e-127  6.8968792481114576e-86  2.2053692028881342e-83  -1.6268020820745146e-81  2.3244771943552964e-98  3.6288285629801831e-99  2.9816418466397920e-128  -2.0973986397560977e-162  -3.4751551642354797e-164  -8.2819824717454512e-173  -7.4242681263333864e-172  -1.9349901390286324e-149  1.2573773427422007e-127  6.7949746306666117e-124  1.6707436681967167e-131  3.9395082748774298e-129  -7.8230256168853206e-126  -1.1619762710007823e-124  -1.0080782513906280e-126  -2.5368092390836111e-124  -1.8100757874847982e-125  4.5275916961506134e-116  -1.3948420610801670e-104  -2.8880516880803045e-96  -1.8970097838667543e-97  -4.0905174003992265e-99  -4.8040120047549178e-89  -4.5353645938961566e-90  2.4370039514460915e-82  4.3265860196509323e-68  -2.6438889087806125e-78  5.2488498285889692e-79  1.2203568816204458e-87  7.6216468793971523e-97  -5.4857495288694818e-118  -3.2701589925635312e-108  -2.6886299698058041e-106  -7.2156743330959897e-129  -3.7847404527255730e-133  -3.7121831515020947e-134  -1.7548644855480602e-134  -2.9711885828741248e-145  -2.0130723433837104e-144  -4.9671232106319627e-140  -5.6679991259074733e-117  -5.4554908355263096e-106  -4.9520909183829414e-97  -2.3010521812937893e-83  3.6409817897922771e-81  -1.1164447043653207e-82  -2.5620243887218596e-80  9.5480283911246021e-90  -1.3939537186608710e-80  -1.5424895833501546e-72  3.1240663943622282e-74  4.5646053207555689e-74  -5.2574494107572119e-68  1.7987501358481208e-69  2.9893756970381838e-67  -4.7846851018842964e-60  6.8800826488285738e-63  5.4488685641347223e-70  4.1727665950351830e-88  3.4933345461866676e-80  2.1447417573056008e-69  1.6333717916140388e-71  1.3173049002757701e-67  1.3482446665515056e-67  1.7635406161462027e-72  -3.8851513583085803e-72  3.6922970460373452e-76  -2.5584368738825772e-75  1.4558350160388232e-74  8.1373745219512915e-96  -1.7228607886484590e-113  8.7632214012745915e-145  6.4957420195928367e-05  6.3236133345432477e-05  1.7498518847891128e-81  -5.1364671307295734e-80  -4.8983930235871886e-153  -1.2733179146803217e-150  -1.2685360547105083e-139  1.3001324617148236e-137  4.9010827827503176e-117  -7.4017677356424539e-106  2.0371474778763294e-96  -1.3270136980856662e-83  -1.0738395352418738e-89  -3.4366739930022536e-91  1.1000204436820279e-109  1.9079542681884319e-118  2.0485693095326272e-139  1.6108252227659430e-151  -3.9659832579025701e-164  4.3886049581506549e-161  1.4772460809214766e-150  -2.1805958697741693e-137  1.9058725631306693e-131  -1.0078055141949002e-122  7.7662812715252791e-127  3.5758309898639900e-125  -4.5963762183561079e-115  -3.1201919600482757e-113  8.0635453043811987e-101  -4.6457408801792210e-91  8.0727618832994986e-77  6.9803393081437308e-88  4.7167228877233045e-107  -5.6444458416101353e-106  -2.0453872805324321e-106  -1.1369782337820245e-117  -5.3618115343984756e-134  -1.7987013651716184e-128  -2.8592172315687978e-89  4.2838481589598438e-89  -5.3463538977388911e-73  -3.3863553483897279e-68  -1.0262614157431933e-59  1.3445890685104380e-68  2.6930884418375732e-78  5.5045015502982875e-70  5.6506811148339719e-70  -2.6315360976117815e-73  5.3296673471385252e-75  4.9862896142158630e-83  -6.9137031395105714e-102  -1.0645339079114883e-122  8.9648022717053228e-133  2.5232831832806071e-143  1.0921232256419688e-04  1.3765038679501164e-04  1.0904950334986029e-04  1.2805688237408358e-04  9.8971615924367198e-05  1.0308723017907138e-04  8.0546946168726793e-05  8.9045108212150705e-05  1.1758514959536747e-04  6.6136030099921895e-10  -4.2962705068830048e-17  1.1053859234619087e-24  -2.9759749542009215e-32  -1.1964745605200516e-40  -1.9526334832879839e-48  -4.9424252715544341e-57  -1.1297464250170574e-64  -4.4256100991250651e-73  1.2119969788414201e-72  8.2402828454615715e-65  9.4307058760176434e-58  2.0017893602272665e-47  -5.1168414030443195e-39  1.3304033636621376e-30  1.4459483590902676e-24  2.4209840355716639e-17  1.0831773462167618e-09  3.5983650983522670e-84  5.1470577091120535e-84  5.3969475497314597e-89  -4.4808540003450508e-96  1.0294962659602659e-103  7.2081727931883427e-103  -2.5979505652697811e-96  -4.7412683369881404e-89  -3.7558349677000891e-83  -1.5819774521746247e-80  5.2033254591831039e-19  1.0716522496706302e-90  -5.7648030708033088e-82  5.1054803003427650e-29  5.9201579895944487e-47  3.5609315693953691e-20  6.3427862389936721e-45  -3.1888053780758232e-112  4.1005364779599053e-69  1.7485682874713533e-55  5.5799976786128376e-81  -1.1833660048417555e-77  4.7021674906465667e-08  4.5923109095434585e-08  -1.7996413840872862e-115  1.3791177311949769e-70  8.7312970395928651e-89  -4.8273429643696395e-114  1.0600594475440047e-70  -2.8684330577833380e-150  3.4460009817529125e-140  1.8331378050031835e-95  2.7319320148778869e-13  1.0118589992551228e-29  6.2640991493235883e-13  -1.9471523023945088e-32  1.6255076998997775e-15  -1.2659465683911847e-70  8.9296581209447634e-73  -1.1085602303083662e-51  3.8827197370702094e-15  3.0817229706624825e-99  7.7845918205987534e-34  -1.2776598402810627e-44  1.3031239639653969e-89  3.2420617748093871e-88  -2.4556619304243483e-90  1.1915986334278144e-83  1.5971779448671965e-43  1.2402878671703665e-07  -1.8504075631293937e-64  5.5950464883808579e-28  -2.1110514625144280e-34  4.2444021194280697e-61  6.9951935884658773e-110  -5.6554535142989847e-77  5.0695947884148555e-55  7.4925502127472213e-116  -7.9922027544931692e-71  3.7479943228158509e-127  2.0494206682886424e-64  -1.0672484153640333e-61  -1.5541054550397706e-104  2.5514441152924928e-79  -5.7461324270587157e-124  -1.3660537986471346e-71  2.6017817104439870e-87  1.5283486923754239e-79  -1.2549314763723106e-97  -3.4893246566526893e-124  -3.9262347921519441e-114  4.7488542798315455e-149  1.5908118201407355e-152  -4.7521005264814063e-161  -1.6695144894570635e-128  1.1789588232174255e-132  9.5092484314799919e-152  2.5551816851506030e-30  5.3926006129757767e-13  1.3164558112858111e-96  4.3357139460982036e-14  -3.9498304351243888e-78  9.9361136612012933e-19  1.8538762528071253e-13  6.6894410829632501e-25  -3.8327219007989982e-64  6.5024693498112707e-103  -1.1366263543787284e-76  -1.3936702575577589e-90  1.0612295441072192e-13  4.5884264627197966e-31  -4.8325833401044702e-77  1.9911017569071231e-60  1.1937157611727313e-07  2.9161164498727551e-46  6.4752845789565482e-68  7.9959922462887339e-29  -4.9591798575950668e-25  -3.9898295222081709e-56  2.3251715465490058e-111  1.2819633466123885e-13  3.5406066966115498e-45  2.5975630467750445e-103  5.0315870184925683e-62  1.7332337452314338e-56  2.0402283061002612e-47  -1.2363029544439527e-76  1.3205687912781844e-107  1.0349114427646620e-40  -1.3318796427355233e-48  -2.9775803793789026e-107  2.2989981797867476e-92  3.0236635120603706e-34  4.3960243570117211e-58  6.1149127029831807e-51  3.1987864269470197e-43  8.5601734243593862e-34  1.0167187576766572e-49  -2.6003780251971459e-100  2.4891378401090946e-97  6.4031598888036090e-82  -6.0323061979008429e-74  -3.8526321731040395e-74  -9.5600796717552471e-64  -2.7023705132511666e-126  3.0091691504692966e-61  6.4205218607940637e-78  7.6574545560087011e-118  6.0971889048784151e-80  2.7317783677967955e-69  -3.3024901123888892e-97  1.0983808858963393e-74  -5.7242112335236593e-96  -6.2829488350315598e-140  -2.5796408249165914e-113  -6.3395927817403964e-124  -9.2219923079734926e-105  -2.2711558217359184e-123  9.4998760464915951e-97  -9.3006765772750824e-123  -1.0757034080290974e-134  1.4145504051207522e-115  -1.0628145517065678e-140  5.4277979404957007e-132  1.7415113335697928e-144  9.2723652303302579e-73  2.2258232775379714e-07  5.5995610811055856e-19  1.4391443876332511e-43  4.5570511656615254e-21  2.9015113260021692e-21  2.5682448344633161e-13  1.0621362012254879e-88  6.9601313415777210e-25  1.8244168203771629e-24  3.9931341836208687e-24  1.6652395443982251e-08  2.1893769669361676e-43  -1.0081897537302460e-38  3.0937024534035805e-37  1.4158907748281060e-78  -6.0829692572905275e-64  2.8725671752870001e-97  -8.2643028434434995e-48  -2.3295109860604409e-70  -1.4948716750498328e-74  -6.9712647899620799e-62  3.4214446539758810e-08  6.9941753447113408e-85  1.3116534894607429e-08  -7.9684186578156722e-84  1.8203081062379058e-52  1.5007906646470195e-07  8.1344239334403474e-14  -1.0776837316717056e-65  1.2851884824184266e-20  -4.3044616668706566e-98  1.7843604507028914e-32  -3.4954821714735713e-68  2.2193245920150440e-83  -1.4641581806273330e-111  1.1254074177286773e-103  9.6243125332838354e-08  -4.6113175112482438e-78  -2.0904938439633336e-103  6.5684919054788970e-32  1.2814078992787218e-40  3.1428794420964858e-20  9.3784422218882940e-112  6.9632653152540781e-64  6.7922372290281834e-14  1.5636809173083576e-47  1.1054910631225365e-07  5.9915609956022275e-67  3.1560851932730338e-40  5.4792929316716492e-67  -1.2974807072206379e-82  1.2315574449837803e-39  -6.4537623791494669e-105  9.5552631305234825e-42  3.9548286514686334e-82  3.3198716559281658e-27  1.0773114378277575e-27  9.2148701901588302e-102  3.2988943221353912e-42  1.3550997939371530e-49  -3.6658749452699837e-66  1.0825324673598637e-50  2.9570812224540663e-115  4.3526802294610716e-54  2.3337814562449001e-50  5.7819067583141220e-49  6.2296071090988236e-56  2.8596752860625452e-54  2.8987961247670511e-114  -1.0606648117532376e-116  2.0408269443310548e-65  6.9305446234496562e-57  3.8417167619255396e-58  2.8984234424673256e-52  -1.1151208319120665e-109  -1.6855767855803578e-86  -5.4734814115268751e-73  3.3137814697452851e-74  -1.1096500208310229e-105  1.0741428173658128e-97  2.8576064291727375e-62  4.0030167588642937e-82  7.4175722857655152e-65  4.3289724628785252e-128  1.5260135300769298e-71  -1.3949661356005308e-70  1.3556471965083375e-128  9.8748277363459760e-87  3.8571362019679143e-138  -2.0846508982289642e-89  7.8511157831481323e-79  -5.2369865427640928e-97  -1.4880113793073034e-133  2.9570369031115310e-107  -9.1720102342576113e-134  1.9816667240029124e-151  -6.3418561258731877e-127  4.5276677284759780e-121  1.8840896533835435e-35  2.0943163074576738e-14  3.4663713004356128e-30  -3.1298948056996586e-77  3.3474677452271879e-14  5.8073082064658131e-25  1.8820608039187578e-78  1.3283764652298454e-36  1.7325686867496106e-18  4.6430418956682852e-08  3.2089797372524639e-24  1.4726268741505324e-21  -1.0214229085918846e-39  1.2396966335760576e-08  -7.5280238391514709e-89  -1.4604799352922383e-104  2.0743148517911308e-08  1.0962650758869375e-07  3.5043255265100930e-68  -1.8895458911346450e-85  1.1720253318975789e-19  2.5698479186893648e-26  1.8203211927829066e-08  3.2234575720267545e-19  2.5126787081038193e-31  -9.9303797749647402e-60  6.9092801179960648e-91  -1.0988677392445701e-44  5.3405806287510277e-20  7.7511355630377271e-29  -1.8225807893900656e-95  9.3752213086894690e-121  -3.2490714125020651e-103  1.4705230029034667e-85  3.5635973005594572e-40  2.1646402764123509e-75  -7.0175424068251780e-61  -2.1254448983465354e-45  5.6415567594483579e-114  3.3211848341282283e-20  1.2397059765263199e-33  2.7519494465328119e-21  7.6419355494271053e-52  3.5031050845296523e-14  2.1888953766800836e-106  -8.4274211533104545e-64  7.6379317305013753e-73  8.9040015306312539e-49  1.0434905962410361e-61  -2.4579608692313205e-56  1.6970276821439489e-74  -9.2159208021591632e-41  -6.4847156373722877e-40  3.7129894744574995e-43  3.5608080948171919e-42  -6.6894026198470172e-37  -2.5268462529629568e-53  -4.9072514622253046e-68  -8.0917069168150666e-70  1.1622575425241674e-14  -1.2241447924205526e-99  5.4141803654087108e-49  -1.2364468582375722e-45  -1.8826619582204872e-92  -3.7604982239694409e-107  2.3751822254800391e-34  3.8870290377500434e-34  1.1222562925767821e-105  -1.7709391483604107e-78  -2.5708923764558650e-78  4.1590501942513989e-64  2.0192779895434269e-117  -3.9632034805130481e-83  -2.7686837024001774e-37  -2.5095409971909858e-50  4.1754250740517373e-57  -3.0197892023606437e-106  1.1335394544645788e-51  7.2854806278566342e-51  8.3341180592824585e-121  1.3272834256240547e-116  6.5055152809273894e-66  2.2773886614931031e-43  -5.5552251159484248e-82  6.8636347772241003e-86  1.8682642260844933e-91  6.2981645173519121e-74  2.4062325553683340e-59  1.2142714053127148e-56  -1.5864024573785875e-65  9.4911000666456674e-65  -2.0618923317851075e-59  2.5794445968502361e-98  5.9197368653567495e-48  -1.4687112160723404e-89  2.7055637460990324e-50  -4.3170720968075852e-96  -5.3257171317955402e-57  -1.5183395884241068e-78  -4.2566489460787330e-82  -1.0506090559564423e-71  1.7667711420711044e-90  4.9772173345656634e-55  -1.3999859917426001e-80  -3.5321988774150242e-68  1.2973239365613175e-108  -6.4682600091168205e-105  -1.3632221142791830e-103  -4.0040435690059334e-83  -3.5345065795944560e-138  -1.7248694397241575e-116  1.1479145059303250e-138  7.4358683489335514e-128  1.4876371281727859e-07  2.1283871322600745e-30  2.7400504717456134e-14  9.3420396504662558e-38  4.5236716497083054e-15  2.4784654372361268e-84  7.6425327374462049e-39  2.8752051475924403e-37  8.7470069030052661e-42  2.6722711445634078e-45  3.6081584402603456e-26  2.0549158709509007e-50  6.6690845060264058e-38  4.3793370979079857e-96  -6.3877548274760309e-58  1.3501839199287325e-27  3.9234755295043398e-58  9.9531134248594122e-47  1.8785290835944984e-36  -2.3483289083502621e-52  7.8843786810988461e-14  -2.2942266459228977e-67  1.1460763332720897e-53  2.5888449416157493e-61  7.3167860628179135e-122  2.5696373775793253e-27  8.8645343333646015e-27  -3.9631525331785008e-93  -4.3348368531074556e-31  1.5125481349634754e-20  -1.8521729282577002e-43  5.3202359581183299e-112  3.0282985445964110e-34  -2.3942895675576109e-59  3.9489963868166432e-34  5.3174649903863255e-71  8.9777254504393361e-27  -4.0474789451876076e-55  2.1941553442100252e-21  1.0319698212993458e-44  -3.6207682388356127e-76  4.2905342380504925e-81  -4.4685107911660009e-83  5.1173327531549505e-69  -6.2581217557173409e-80  -2.1699238106018042e-90  -2.5767452388495009e-68  3.4099600360401482e-34  1.6551455385642321e-34  -9.0333326153823667e-75  3.6465124486390762e-90  1.0355669209554061e-42  3.9776937190506322e-54  -1.4038782429839997e-52  -3.4900736477497933e-113  4.2132848969423321e-27  9.2999236972237364e-82  -9.4962775362671464e-62  1.8796754316957532e-56  1.1459850444125672e-42  7.0556215660335403e-59  -2.1483908809880831e-58  3.5212004210265948e-75  6.8671234066726123e-115  1.8623011072485171e-42  1.2189842738761432e-35  1.4726261433493895e-66  -2.5174703649428897e-66  1.5143611750633708e-110  1.0112405570079977e-52  9.2712594596232668e-49  -4.3859618269811471e-59  -2.7101829838206323e-114  -1.8904572041194217e-52  3.9378335338385384e-86  2.8016052171393412e-67  -1.3572641190043819e-46  -1.1032629804977116e-66  -1.4220029150271652e-43  8.8914645857005251e-75  2.4765443792438054e-59  -5.8963928580387137e-101  1.9064644745301649e-86  7.4659067803603475e-77  9.5064550240459642e-73  1.5640261469176396e-92  -5.5070834466738157e-66  6.0777823346265308e-64  -7.0803879709609878e-79  -1.3918090481459448e-89  -2.8756801575327142e-68  6.8838890528798210e-81  5.7650413414444311e-58  -5.9414757966234785e-94  -2.4898871644853955e-74  8.7464258843809465e-69  -6.4468047494169061e-57  1.2320806378158298e-108  3.3678210520823637e-81  1.7413905211360878e-63  -3.8516044428142136e-92  3.5731623936150834e-89  4.2322856100069264e-104  1.9506059762106279e-115  1.5815531053082887e-116  1.6030770117924308e-112  -6.9653957151200761e-54  1.8873190190352661e-16  5.2522507592855834e-37  6.8859320553777611e-40  6.7495246062973983e-29  -3.8687252735688146e-127  1.5159237863717302e-38  -4.2488328096095045e-71  -6.2249401253008954e-52  2.9438593595426829e-27  1.3703194491451369e-33  4.4007917688301158e-44  8.6357744009626135e-27  4.0325877368774121e-23  -3.3605940229519827e-122  1.2485479411835126e-56  -4.0449809359796172e-60  -8.5693761569541214e-68  -5.5904315780286435e-59  -2.0342164508276561e-52  -1.5184432485130541e-72  1.5139691477228384e-41  -1.9554429913550787e-50  6.2271954015609971e-59  9.7195825591280084e-70  4.8109967363655337e-53  -2.9328259675158970e-84  4.0585591549462133e-105  1.4500678256888405e-76  1.0696636518036497e-62  1.3641736653482526e-36  -1.8581943018644234e-75  -4.0510995314334750e-37  1.6325207797260007e-27  7.5219486526183155e-64  -1.8635275669646990e-75  3.1092504364010495e-123  1.6556936331614524e-50  3.3211119472832565e-42  -1.3751319338501011e-69  -2.9503617664082672e-99  2.3057029306305466e-49  7.0172499003519765e-66  -5.7441557829644531e-52  4.9066284386987492e-63  -1.7442150770558516e-64  1.2715896233911166e-70  -4.7149666483281038e-95  2.0855198752541609e-84  -2.1051739335556939e-51  3.0861825796423348e-41  7.9038587495807458e-43  1.5197587826593652e-81  5.6511281558370789e-66  -3.0565393323016779e-63  -2.2648848918435577e-78  7.4995230740349296e-50  -8.5854769504971399e-91  -2.6952108151375520e-100  9.5958020334733254e-82  1.6650480539713564e-58  -1.0864571879899280e-74  1.4381541322971375e-65  -4.1436746809117823e-88  8.2021854752227509e-60  9.4147812528646216e-101  1.0704510931232737e-94  1.2088143230643636e-50  4.0358490357239485e-68  1.0886953747400316e-71  2.2893971670804793e-54  -4.3720170524749997e-46  -1.0025943713101790e-54  6.6041491541717983e-89  4.9969154375816046e-95  -5.5638067798328787e-65  3.3973468737051495e-83  6.4198804989609187e-101  1.7596761633401192e-98  2.9631611515462515e-110  7.1364576295739055e-118  3.5848736372293482e-79  2.5925278204212849e-36  -1.7703943482728386e-47  -7.9664679611781537e-45  1.8272632992442231e-51  2.7118614568343103e-59  7.1141803390430513e-52  -2.3904539104231129e-91  -5.2151067141806506e-60  -2.1323641378434416e-71  4.7657826748004224e-80  9.1834533998068374e-44  -5.3846101220643483e-72  1.1046144928500782e-51  1.1994363751998941e-35  -5.6653453311367130e-87  -1.0941341153615057e-75  -9.8831786580341668e-60  5.5252834576012908e-86  1.0992474957229444e-73  -5.3190104025677135e-60  3.4288981346305484e-52  -1.3179856634164931e-68  -8.4747660360362635e-53  1.1728824475331083e-58  -4.5866657779958088e-90  -5.1199032248600794e-96  -4.7559119652631671e-86  2.4061574532668976e-61  3.8458264923490036e-62  3.6925893442949824e-105  -6.1710339723247503e-96  4.2731170476198516e-70  3.6991309331538044e-78  1.9646774753767030e-107  3.2046889182221753e-119  2.7442097916527181e-100  -2.1598780586771585e-127  7.0150483029682388e-72  6.6472681551199026e-60  -1.9732697797015905e-88  2.8525462591643422e-79  5.1456910667987527e-48  -1.8791946234753562e-95  -7.8120065017857396e-74  -1.0585568010363368e-68  -7.1977556555327996e-60  1.1702716626978057e-95  -4.5993330680960561e-105  -5.1542343151482260e-99  1.0106385293166513e-87  2.1120651763156991e-61  3.1573981791367260e-129  2.6967631107169829e-129  3.4918887216086642e-121  2.0382515669012585e-90  -3.7922980948338680e-106  2.7658893615887211e-160  -4.7613925499829373e-151  -2.2683190742754158e-145  1.1871638215637779e-139  3.5247992680690839e-132  -1.6890391376265790e-121  5.2379738320630932e-112  -3.4103965195747539e-100  3.1927552443406769e-91  -2.0326336611515560e-84  1.1110763677386518e-83  4.2461927663288635e-82  -1.3398089909477802e-85  -8.2754865366424616e-90  -2.4517600902878160e-95  3.8421215459419018e-98  3.7256615460352024e-104  8.5528387354932275e-114  3.4250041762405813e-123  6.1538337848251562e-134  3.4705238028475013e-145  -5.6924861313217820e-157  -8.5562810123617392e-163  -5.6496686240516134e-164  -7.0247890947067092e-170  -7.7230159292732223e-172  -7.6121145380764615e-167  2.1347552958156406e-155  -4.6888603584547591e-150  -1.7622108299015322e-143  -5.6048315554090369e-134  1.1080719633414898e-127  -7.6483170405424406e-128  -9.1695247226389350e-123  -7.1212022129406476e-128  -7.1557298310001590e-133  1.3537854249976440e-126  -4.9766931890872989e-127  -1.6197025755794529e-124  2.8256579589095368e-125  2.5901529669833760e-129  -1.1052539968904134e-124  -1.0912050872555996e-124  3.0472283348019145e-120  4.6882822054646317e-116  4.6143932529403968e-114  -7.9392267539407944e-109  -4.4364156253500795e-100  6.9101520425381992