<?xml version="1.0"?>
<VTKFile type="UnstructuredGrid"  version="0.1"  >
<UnstructuredGrid>
<Piece  NumberOfPoints="2868" NumberOfCells="5400">
<Points>
<DataArray  type="Float64"  NumberOfComponents="3"  format="ascii">0.534923 0.326073 0  0.510642 0.314196 0  0.466125 0.293082 0  0.436448 0.281205 0  0.409468 0.275927 0  0.368998 0.270648 0  0.35281 0.275927 0  0.381139 0.302319 0  0.405421 0.326073 0  0.410817 0.33531 0  0.408119 0.349826 0  0.400025 0.357744 0  0.375743 0.368301 0  0.329878 0.392055 0  0.297502 0.432963 0  0.282663 0.476511 0  0.285361 0.524018 0  0.298851 0.572845 0  0.317737 0.6045160000000001 0  0.337972 0.6361869999999999 0  0.360904 0.674457 0  0.368998 0.69953 0  0.359555 0.7219640000000001 0  0.360904 0.757594 0  0.370347 0.766831 0  0.381139 0.762872 0  0.390582 0.741758 0  0.404072 0.720644 0  0.424307 0.707448 0  0.447239 0.702169 0  0.480964 0.704808 0  0.479615 0.6889729999999999 0  0.468823 0.675776 0  0.447239 0.6691780000000001 0  0.428354 0.6691780000000001 0  0.410817 0.6639 0  0.404072 0.653343 0  0.395978 0.628269 0  0.387884 0.59132 0  0.389233 0.576804 0  0.397327 0.557009 0  0.410817 0.547772 0  0.424307 0.546452 0  0.437797 0.55305 0  0.44589 0.5662469999999999 0  0.441843 0.582082 0  0.439145 0.5979179999999999 0  0.449937 0.609795 0  0.468823 0.603196 0  0.479615 0.59 0  0.489058 0.570205 0  0.494454 0.546452 0  0.505246 0.522699 0  0.522783 0.509502 0  0.55246 0.494986 0  0.586185 0.484429 0  0.615863 0.48047 0  0.64554 0.473872 0  0.6671240000000001 0.461995 0  0.683312 0.451438 0  0.696802 0.435603 0  0.703547 0.417128 0  0.7116400000000001 0.393374 0  0.7183850000000001 0.37226 0  0.7251300000000001 0.364342 0  0.739969 0.353785 0  0.7453650000000001 0.344548 0  0.7453650000000001 0.327393 0  0.737271 0.318155 0  0.7183850000000001 0.316835 0  0.7008490000000001 0.319475 0  0.677916 0.318155 0  0.650936 0.316835 0  0.610467 0.318155 0  0.57944 0.324753 0  0.559205 0.328712 0  0.5389699999999999 0.326073 0  1 1 0  1 0 0  0 0 0  0 1 0  0.532238 0.32476 0  0.528748 0.323052 0  0.52421 0.320833 0  0.518311 0.317947 0  0.503447 0.310783 0  0.494093 0.306347 0  0.481933 0.30058 0  0.452151 0.28749 0  0.392327 0.273691 0  0.379141 0.271971 0  0.360474 0.283066 0  0.369797 0.291752 0  0.391424 0.31238 0  0.399335 0.32012 0  0.40958 0.341964 0  0.393939 0.36039 0  0.386028 0.36383 0  0.364248 0.374254 0  0.349304 0.381994 0  0.315801 0.409841 0  0.292986 0.551616 0  0.350934 0.657818 0  0.360127 0.737055 0  0.360566 0.748664 0  0.385245 0.753692 0  0.396447 0.732578 0  0.466301 0.703661 0  0.459439 0.672908 0  0.418442 0.666195 0  0.400553 0.642441 0  0.39255 0.612619 0  0.389913 0.60058 0  0.392752 0.568197 0  0.444131 0.573132 0  0.458149 0.606926 0  0.5005540000000001 0.533026 0  0.571522 0.489019 0  0.632637 0.476741 0  0.689177 0.444553 0  0.708121 0.403702 0  0.715453 0.38144 0  0.732406 0.359166 0  0.7453650000000001 0.337089 0  0.72906 0.317581 0  0.629879 0.317522 0  0.59293 0.321884 0  0.568003 0.326991 0  0.55202 0.327775 0  0.546493 0.327054 0  0.542241 0.326499 0  1 0.9 0  1 0.8 0  1 0.7 0  1 0.6 0  1 0.5 0  1 0.4 0  1 0.3 0  1 0.2 0  1 0.1 0  0.9 0 0  0.8 0 0  0.7 0 0  0.6 0 0  0.5 0 0  0.4 0 0  0.3 0 0  0.2 0 0  0.1 0 0  0.1 1 0  0.2 1 0  0.3 1 0  0.4 1 0  0.5 1 0  0.6 1 0  0.7 1 0  0.8 1 0  0.9 1 0  0 0.1 0  0 0.2 0  0 0.3 0  0 0.4 0  0 0.5 0  0 0.6 0  0 0.7 0  0 0.8 0  0 0.9 0  0.535686 0.5031910000000001 0  0.753987 0.733359 0  0.167145 0.741436 0  0.173378 0.257204 0  0.733497 0.159862 0  0.554096 0.15788 0  0.849187 0.479053 0  0.488793 0.838452 0  0.138507 0.5592 0  0.30686 0.154944 0  0.348904 0.890523 0  0.058006 0.065099 0  0.06984899999999999 0.937917 0  0.93633 0.939704 0  0.934625 0.053613 0  0.343397 0.333452 0  0.473272 0.639943 0  0.433266 0.638072 0  0.415174 0.58269 0  0.533435 0.545042 0  0.390848 0.340652 0  0.53655 0.320242 0  0.127966 0.393775 0  0.83861 0.850455 0  0.635242 0.8551299999999999 0  0.852158 0.633441 0  0.653427 0.626848 0  0.861226 0.24292 0  0.166128 0.12976 0  0.216875 0.8698709999999999 0  0.458305 0.11179 0  0.84446 0.101633 0  0.202024 0.642528 0  0.644825 0.115855 0  0.671342 0.218358 0  0.251354 0.286186 0  0.262388 0.75153 0  0.063044 0.751571 0  0.068189 0.242962 0  0.435781 0.9053949999999999 0  0.934144 0.451133 0  0.568393 0.237622 0  0.814984 0.395506 0  0.752951 0.517227 0  0.456254 0.780699 0  0.073352 0.531116 0  0.337731 0.206071 0  0.363213 0.960371 0  0.330742 0.363592 0  0.516613 0.55705 0  0.369057 0.332992 0  0.500926 0.617309 0  0.498004 0.665534 0  0.412142 0.61178 0  0.454233 0.6366039999999999 0  0.422782 0.567496 0  0.541193 0.5214800000000001 0  0.439761 0.65557 0  0.5163 0.533672 0  0.414775 0.64562 0  0.40073 0.576135 0  0.430362 0.5880339999999999 0  0.385432 0.351492 0  0.400298 0.335397 0  0.398325 0.348194 0  0.528702 0.314885 0  0.540814 0.322334 0  0.534477 0.322953 0  0.619095 0.743583 0  0.885162 0.737972 0  0.08076 0.668849 0  0.90734 0.36634 0  0.09468699999999999 0.868937 0  0.759838 0.912152 0  0.901518 0.540898 0  0.747285 0.607479 0  0.229182 0.071641 0  0.06915399999999999 0.450091 0  0.244775 0.203309 0  0.076534 0.331755 0  0.897847 0.167826 0  0.578909 0.911415 0  0.07713299999999999 0.146341 0  0.477215 0.203448 0  0.922631 0.869341 0  0.517415 0.074785 0  0.297026 0.827793 0  0.7832710000000001 0.246505 0  0.74519 0.061079 0  0.36033 0.069068 0  0.210313 0.475228 0  0.859426 0.928758 0  0.5745479999999999 0.609182 0  0.243069 0.383398 0  0.283099 0.934598 0  0.417416 0.843141 0  0.643942 0.553164 0  0.112687 0.079336 0  0.281357 0.658386 0  0.765043 0.436177 0  0.611361 0.198486 0  0.234496 0.58911 0  0.206479 0.702638 0  0.679608 0.155818 0  0.62682 0.259978 0  0.690538 0.264164 0  0.448938 0.956308 0  0.808154 0.328403 0  0.379583 0.91913 0  0.308083 0.297769 0  0.312358 0.730249 0  0.563101 0.278576 0  0.435597 0.746198 0  0.385475 0.225229 0  0.572248 0.518034 0  0.357864 0.35422 0  0.497647 0.641694 0  0.458101 0.655768 0  0.360474 0.310727 0  0.467038 0.620139 0  0.47798 0.659909 0  0.41102 0.628072 0  0.48324 0.609015 0  0.427544 0.617941 0  0.388633 0.328253 0  0.405336 0.599404 0  0.408351 0.565178 0  0.42395 0.600985 0  0.431562 0.576523 0  0.424905 0.6551979999999999 0  0.398064 0.58782 0  0.427739 0.557934 0  0.5192909999999999 0.303443 0  0.53142 0.320293 0  0.5449000000000001 0.323642 0  0.537166 0.323513 0  0.153974 0.920841 0  0.9181859999999999 0.67343 0  0.759946 0.820588 0  0.5375259999999999 0.783091 0  0.816532 0.545843 0  0.813991 0.178083 0  0.836774 0.702023 0  0.149815 0.318856 0  0.662287 0.923338 0  0.680146 0.791192 0  0.708961 0.663172 0  0.9372779999999999 0.287318 0  0.574622 0.6881660000000001 0  0.5894740000000001 0.076262 0  0.502822 0.926683 0  0.222269 0.811068 0  0.380457 0.164786 0  0.15321 0.684154 0  0.458063 0.051413 0  0.161702 0.056026 0  0.199351 0.198818 0  0.298946 0.09553200000000001 0  0.902465 0.795949 0  0.121139 0.791477 0  0.906269 0.112287 0  0.056109 0.822332 0  0.512172 0.13237 0  0.940964 0.741805 0  0.888887 0.408777 0  0.354543 0.825964 0  0.808736 0.068638 0  0.068507 0.394071 0  0.719105 0.563843 0  0.247287 0.149664 0  0.293062 0.237128 0  0.240524 0.434997 0  0.141255 0.623289 0  0.945202 0.160621 0  0.502914 0.247629 0  0.144669 0.480811 0  0.665025 0.060817 0  0.728047 0.224344 0  0.861995 0.313312 0  0.200068 0.534235 0  0.253262 0.965623 0  0.893804 0.49307 0  0.604391 0.572456 0  0.947088 0.345347 0  0.439372 0.227307 0  0.629847 0.159823 0  0.273405 0.880181 0  0.302744 0.776823 0  0.781502 0.295365 0  0.275342 0.349602 0  0.7283849999999999 0.472798 0  0.229136 0.246478 0  0.807794 0.480346 0  0.709476 0.112786 0  0.275506 0.694991 0  0.771674 0.394419 0  0.449715 0.861802 0  0.419159 0.799696 0  0.674851 0.503139 0  0.280443 0.61016 0  0.572443 0.192538 0  0.393113 0.87525 0  0.405555 0.948428 0  0.330942 0.934103 0  0.540509 0.597101 0  0.312763 0.6689310000000001 0  0.254368 0.540179 0  0.595265 0.25915 0  0.606679 0.234099 0  0.657131 0.279138 0  0.722458 0.279478 0  0.333 0.308056 0  0.351529 0.246142 0  0.455714 0.7257940000000001 0  0.585239 0.295143 0  0.340062 0.72492 0  0.545593 0.293773 0  0.555449 0.545426 0  0.414311 0.737314 0  0.590854 0.502323 0  0.350507 0.368444 0  0.484423 0.625665 0  0.483899 0.674542 0  0.378137 0.317274 0  0.446416 0.646404 0  0.373532 0.347654 0  0.446876 0.619769 0  0.466106 0.666068 0  0.437545 0.609254 0  0.434988 0.565726 0  0.41462 0.656829 0  0.418803 0.556961 0  0.398425 0.327446 0  0.517803 0.310421 0  0.549516 0.322918 0  0.57701 0.842889 0  0.8291269999999999 0.773906 0  0.643235 0.684732 0  0.134281 0.207734 0  0.865997 0.055966 0  0.680959 0.723345 0  0.165229 0.8415550000000001 0  0.54558 0.959672 0  0.783726 0.656439 0  0.913315 0.595533 0  0.699439 0.860667 0  0.785839 0.125076 0  0.551673 0.037713 0  0.9200970000000001 0.223214 0  0.206406 0.299726 0  0.087064 0.596401 0  0.935644 0.394252 0  0.964557 0.252582 0  0.230124 0.928346 0  0.120579 0.271764 0  0.8572149999999999 0.524082 0  0.7670979999999999 0.5551469999999999 0  0.936094 0.507131 0  0.804064 0.59585 0  0.700565 0.608273 0  0.429773 0.174231 0  0.117746 0.727333 0  0.5389620000000001 0.730231 0  0.862761 0.359173 0  0.821444 0.284046 0  0.193552 0.35818 0  0.234923 0.505555 0  0.193209 0.421217 0  0.220144 0.755896 0  0.594015 0.131642 0  0.283813 0.195855 0  0.517519 0.213961 0  0.553509 0.639116 0  0.280391 0.378018 0  0.852183 0.436817 0  0.746983 0.197173 0  0.821806 0.221318 0  0.449853 0.828453 0  0.883758 0.453926 0  0.183484 0.589542 0  0.348384 0.129314 0  0.255254 0.838525 0  0.504849 0.798516 0  0.320344 0.863432 0  0.611669 0.525425 0  0.265864 0.804962 0  0.72056 0.521442 0  0.613372 0.6101220000000001 0  0.481262 0.881068 0  0.655778 0.191988 0  0.701921 0.196918 0  0.5658260000000001 0.5731810000000001 0  0.46914 0.240927 0  0.343219 0.173284 0  0.888786 0.278502 0  0.244113 0.6750930000000001 0  0.739546 0.417914 0  0.784023 0.355942 0  0.326805 0.265549 0  0.248616 0.6
[...]
<PointData  Scalars="f_17"> 
<DataArray  type="Float64"  Name="f_17"  format="ascii">-6.0762150553658489e-160  -5.1904193518240580e-130  4.7533814790282554e-86  -1.4874692548950613e-83  8.4301685569033699e-82  -9.4250633185740449e-99  1.0853104478319276e-99  -7.0846651121112220e-131  1.8883400547423434e-167  1.1456932708728654e-169  0.0000000000000000e+00  0.0000000000000000e+00  -1.4550249923091120e-153  1.1473910209929377e-130  -2.6564180159276975e-126  1.0080918040882494e-135  1.9563249149624333e-131  -1.2192689400674591e-129  1.8723202194023868e-128  4.3745434716198385e-131  1.2310846197142769e-128  2.6893899006176556e-128  -1.5132132646442201e-118  3.2561827776488745e-106  -1.6896376555290253e-97  -2.6263392321782976e-98  -1.5889895112059876e-99  -2.8518480920299411e-90  3.8145343336194412e-90  -9.4238250587897872e-84  2.3683962551605667e-68  4.6966356272248212e-79  3.0536385514180829e-79  -3.6561861965222910e-90  -7.1511584398370456e-98  -1.3226138848242625e-118  -6.1476704461918564e-110  -1.8866805119534008e-107  4.6719324324444927e-131  1.7233017276123390e-135  1.7141135917553521e-136  8.0434420492060071e-137  8.7133553212758002e-148  3.8587997166416763e-147  2.6315623820083671e-142  4.5039360040196448e-119  -2.5912272405259095e-107  -1.3781410437719089e-97  -4.8770810889484182e-83  -5.9747190436429849e-81  -3.6016881327175605e-84  7.1375610087870925e-82  -3.4308402788090779e-89  -6.3221508850887129e-81  -9.7513485712210069e-73  -2.2812817296462131e-73  -3.4954312001582070e-74  -8.4027695910173585e-68  1.7780324716556723e-69  1.4314069564748507e-67  -1.8157476158694650e-60  4.2144541014799717e-63  1.5641250267163999e-70  9.3582282095225693e-89  1.2881488460169754e-80  1.0937445675255133e-69  8.0452320653774125e-72  4.2341581275673439e-68  1.2328251891510432e-67  1.1657859964167057e-72  -2.1889898718791227e-72  2.9857591772297337e-76  -1.1732780324609035e-75  5.7484952248745264e-75  -6.8300968800286880e-94  -7.5639902262445925e-115  -9.1339798527034195e-149  5.1965307654719403e-05  5.0588302165434815e-05  2.8087012666821178e-82  -7.7200134878985685e-81  5.9616723188610415e-156  -5.8108462398262621e-153  -2.6385051806982666e-141  -6.1790083197415585e-140  1.0604748478601501e-118  1.7940662675587888e-106  3.3350308034792525e-97  1.3738111401361227e-83  1.6087406384167303e-90  -5.9231621200089680e-92  4.3870782863475060e-111  -3.1292891908537461e-121  -2.4843400345356528e-142  -1.2209608579261536e-154  1.2986247750871484e-169  -1.0277889239027756e-165  -4.0987784672478605e-155  -6.7439756750826988e-142  4.3572878450692277e-132  5.3337414275672929e-126  1.3619800028526811e-130  -1.3199001155594901e-128  -5.3970662765829199e-117  -2.4720889228540037e-115  -2.8953580490228071e-101  -5.1856483395097330e-91  5.4504857304223026e-77  6.7091546223863982e-89  -7.4280979684166288e-108  -2.5470528870926817e-107  -1.1756428717427723e-107  7.7642954241919047e-120  2.2279830157901699e-136  1.4344464776247745e-130  -7.2078832935312778e-90  -1.1565544829229401e-90  -3.6046923475271918e-73  -2.8804017870277641e-68  -7.6616205691629817e-60  4.8980250217399844e-69  7.9855187003605023e-79  2.7074392780832153e-70  2.9905383925699849e-70  -1.8309135929227484e-73  4.2475894651494826e-76  1.4203183799716028e-83  -9.3979882628575006e-103  -6.7936723247965679e-124  -7.5203637129471286e-135  -2.7564250057993765e-147  8.7368358968763292e-05  1.1011809384065263e-04  8.7238098341527989e-05  1.0244356015605340e-04  7.9176131141401397e-05  8.2468529824827820e-05  6.4436788522492070e-05  7.1235152641251057e-05  9.4066507778339033e-05  5.1644258302499593e-10  -3.2953956537536534e-17  8.1145621463675519e-25  -2.0510225100521320e-32  -7.2043920550377346e-41  -9.6192580338438474e-49  1.2090932075821030e-57  8.8483991069370757e-66  8.8421263799380021e-74  -3.1776875792089681e-72  -6.2312928786522622e-65  2.7350531259408285e-56  7.2016055952799241e-48  -3.6630591166532047e-39  9.2523943367090663e-31  1.0755979221775277e-24  1.8245250563841625e-17  8.5054682699080189e-10  2.7298574861248971e-84  5.1532977068579370e-84  1.7664837142843604e-90  -1.1362034193361728e-98  4.4647114753587678e-106  -1.3315755760904619e-104  1.0865939847077956e-97  1.5904359173942820e-90  -2.5716275389400383e-84  -5.3478015963364336e-81  3.9900323111861732e-19  1.0149719530397577e-91  2.5790268359719255e-82  3.6491374409554359e-29  3.7685940024932790e-47  2.7311668251569557e-20  3.9030197081670710e-45  -7.1101084451326575e-114  -1.1562961298784677e-69  9.2890702286863604e-56  1.2554837617848951e-81  -5.8644910189281691e-78  3.7358589622958185e-08  3.6480099665311142e-08  7.2226688539010529e-119  -3.3765710713031801e-71  -2.9333667121400625e-88  -6.7291186745032266e-118  7.4261157812155540e-71  -3.2228252585048329e-154  3.7456799493878167e-143  -5.4764344740083347e-98  2.1322737547514442e-13  7.2281264618896737e-30  4.9162998036806803e-13  -1.6238420598633943e-32  1.2691577704942256e-15  1.7491643329073229e-71  2.5005890490242540e-73  -8.5418600156948885e-52  3.0271423499811578e-15  6.3606144682602374e-101  5.4890055399872541e-34  -8.2626342067626200e-45  -1.0990366909525607e-90  3.0946423199566709e-89  1.5763019536159801e-91  9.5533807429924220e-84  1.0146467972628552e-43  9.9007161140487954e-08  -1.4214982714445793e-64  4.1842784665177530e-28  -1.5146704160114703e-34  1.7049891260387737e-61  -6.4820301785761359e-112  -4.8789865796963570e-77  3.2271620566645105e-55  -2.7750101383475698e-119  -2.4664146679825280e-71  -5.3194537780497448e-131  3.3703958620152681e-66  2.8871498245977451e-62  -9.5962879315461295e-106  -1.9460672396769279e-79  4.9564868064903307e-126  -1.3358001611988364e-71  3.3734133901412573e-89  -2.3925948097020198e-80  -4.6460830323770571e-98  2.9619077747379544e-126  1.3420281238906845e-117  8.7800553845426308e-155  -1.6745142183159516e-156  -6.6214330400750660e-166  1.5280325096952289e-130  4.2150558007136749e-137  3.3342188803457768e-155  1.8401981625239310e-30  4.2317564464106616e-13  -1.5980638016916813e-98  3.4081645543893302e-14  -2.4165632667077723e-78  7.5475711584884358e-19  1.4596842380219636e-13  4.9534842522032153e-25  2.7123177964714457e-65  -4.3205624270878870e-105  2.3997194167475453e-77  -4.1812170104320856e-92  8.3137916115860767e-14  3.2297106764877668e-31  1.0202077264248645e-77  1.0564352320357902e-60  9.5133480077828223e-08  1.1715438496563330e-46  2.4374376238884321e-68  5.8342279198286602e-29  -3.4364705213301855e-25  -6.7778996422146649e-57  1.8554622192550675e-115  9.9675134594441493e-14  2.7455366737814365e-45  -1.0834030692358834e-105  2.3103661230952816e-62  8.6805745287196441e-57  5.3849084681680799e-48  3.0657293341526116e-77  5.3040859150448453e-110  7.1366898960577711e-41  -1.1509040834627858e-48  -1.3493106526672374e-109  1.0495260697338661e-93  2.0750916166480489e-34  2.3950505549868592e-58  3.6661284526038072e-51  2.0353307969411128e-43  6.1887917935699536e-34  5.9637450144195573e-50  1.4043728333942837e-101  2.0539782159559718e-98  1.0523197707575543e-80  -2.6737834690815534e-73  4.8593186890852743e-74  -1.2524706860291988e-63  -3.2261508992378859e-130  1.2966151367830497e-61  1.1939220316518638e-78  6.6653108206613212e-121  -1.3568678014899107e-79  1.4456746904933570e-69  -1.7334092300598195e-97  -7.0198970286303231e-74  -2.4228714979407408e-96  -2.2351417454900100e-142  -3.8727722315143172e-116  5.4863385365150441e-126  -5.5925960154572105e-106  1.9849334275109386e-125  -6.8197209140819768e-98  7.6959312791237680e-125  4.9122201507001793e-137  -2.0432225438049500e-117  -1.0524940295945238e-143  -1.0605820076655538e-134  -1.8202675031349932e-148  -5.4346936806955208e-72  1.7767110134869138e-07  4.2662767319963753e-19  9.5461227262452395e-44  3.4958023282137135e-21  2.2283959675686233e-21  2.0142127508516590e-13  5.1407520426812152e-90  5.1079308460102588e-25  1.3557297355759952e-24  2.9701317519899453e-24  1.3304675450510823e-08  1.3768915424006193e-43  -7.8246021317558524e-39  2.0797702351120792e-37  2.6907839859161451e-79  -1.0554692774743576e-63  8.7866921797627742e-99  -4.1331529439125432e-48  3.5871570133319051e-71  2.1222855386263053e-75  -5.2595774275547645e-63  2.7298522634694974e-08  7.9466295448527644e-85  1.0446684311608766e-08  -8.8821124761498993e-85  -8.7939094015300667e-53  1.1983091331316202e-07  6.3847889530463718e-14  -5.8844134692379734e-66  9.7631858024986349e-21  6.1623294546191942e-101  1.2450623199235440e-32  2.4353275491315973e-69  6.2248497446630085e-84  -2.2573038035907205e-114  3.9000151945322786e-106  7.6801203489271478e-08  -9.5157260873395401e-79  1.8452239758994227e-105  4.6475355362027480e-32  8.8233639602230306e-41  2.4134999422214480e-20  7.0906185656559414e-115  -1.5319794966164863e-64  5.3366308575680939e-14  1.0272662893287431e-47  8.8288827823199464e-08  2.8681573456499238e-67  2.0700390113816563e-40  2.0760581280250924e-67  -2.8276794879138633e-83  8.1773874463635903e-40  1.3876759318607235e-106  6.6410261950030305e-42  -1.1051372544807237e-82  2.4832009155274979e-27  7.8659557785398603e-28  -1.2226621862708983e-103  2.2763998938222683e-42  7.7096181722269242e-50  -1.6355718885190531e-66  1.5684182856744987e-50  2.8352717623426977e-118  1.6782203893815769e-54  1.3598354008810374e-50  3.3881824955379022e-49  3.3536291643743787e-56  1.1191950133423514e-54  1.5298350677992282e-116  7.0736304194000416e-120  1.2353586208399386e-65  5.3552938194530566e-57  2.2219029734882273e-58  1.8590495483911805e-52  1.6520925189850269e-111  -5.6631541454244822e-87  -1.0661751082560807e-73  1.1449982151061444e-74  -1.5951492698848003e-107  -1.0186708424399591e-98  1.7981988884658509e-62  -6.1421386953768530e-82  -1.3925396578110791e-64  3.8402412789409934e-131  -1.1586235984550843e-71  4.8560419654203780e-71  -3.1284239129318993e-131  -6.2434099804013985e-88  -2.0917112039632729e-141  -9.7406069429448298e-88  2.4720598622942190e-79  -1.6996493726250838e-97  6.9849780197785478e-136  -4.9431422135493425e-108  4.0708545645062103e-136  -1.2491155077270381e-155  6.9673629014500903e-128  2.5084850362494748e-124  1.2985768294295389e-35  1.6385805898545209e-14  2.4857063268062420e-30  5.8475532981774153e-78  2.5994399933193457e-14  4.3326243531896929e-25  5.8408017662469286e-79  8.8280383250884947e-37  1.3266666435143453e-18  3.7086551278283204e-08  2.3688108769437246e-24  1.1092558496729846e-21  -6.2854062205627695e-40  9.8898551499052702e-09  -6.1211906609585232e-90  1.6505379069339082e-106  1.6572183959231917e-08  8.7620527452343538e-08  1.2917723981883953e-68  3.3716149050875787e-85  9.0076122407799777e-20  1.9010791061341944e-26  1.4543363039653870e-08  2.4685921743213639e-19  1.7521569869233604e-31  -2.9678934577057066e-59  -5.8827337175944605e-93  -8.5570549053019943e-45  4.0958645608108310e-20  5.8318090392184540e-29  8.8089504264468628e-98  3.7605582719884085e-124  1.3704199769749439e-105  1.5730089124826900e-86  2.3996594227433823e-40  -5.1198552037232557e-76  -4.0250414479569139e-61  -1.4600540130377753e-45  3.0143710871608645e-116  2.5465425933826261e-20  8.9680936297426581e-34  2.0979195885696288e-21  4.2687407214083328e-52  2.7477373841710619e-14  8.2353718830905359e-109  -1.0980703009452818e-63  2.1773240092565135e-73  5.4774241873240028e-49  4.8108291059237945e-62  -1.1702286847072769e-55  4.8363121658629827e-75  -5.7412132439206574e-41  -4.4296542908815508e-40  2.3181175478053915e-43  2.1349917244266795e-42  -4.7442302961363697e-37  -1.7824252236552035e-53  -2.2879992376816531e-68  -1.3025307403043750e-69  9.1659336768520572e-15  -3.6528422153535700e-101  3.4624724045328300e-49  -9.0587897076574124e-46  -2.1148804059683165e-93  -1.6935659819774712e-109  1.7107376911177775e-34  2.8169235545080533e-34  1.3368093360593118e-107  -5.3143653936178185e-79  4.0358364258855685e-78  1.7393059906204082e-64  2.0281325497138208e-119  -2.2208244736380358e-83  -1.8641459030418088e-37  -1.4824123700502806e-50  2.1840943310589910e-57  1.8081327809138089e-108  7.1340838608346080e-52  4.2329000343801218e-51  3.3768999670423092e-124  -6.5692202943646756e-120  3.1555929385108278e-66  1.5423582828755333e-43  -1.2544642310178516e-82  -5.7042103348098260e-86  -3.2150714579422750e-92  3.2348324738923809e-75  1.3880573222531579e-59  7.1367537629585357e-57  -1.4695618866538394e-64  3.6897087377763881e-65  -1.3196658763733529e-59  -1.6055062610250268e-100  4.3498802201599070e-48  -1.6467411047293676e-90  1.5854084917775567e-50  -2.1937006987284114e-97  -5.6144910273756972e-57  -1.1440971390631011e-78  8.0358136145287713e-82  -6.7256016526698167e-72  3.0052688386643751e-91  3.3900520593362209e-55  -2.3974819837007534e-81  -1.8156526801804441e-68  7.0552921691136910e-110  -2.8219859843424766e-106  1.1964126197321165e-104  -2.2444571921618113e-83  -8.4692475816974122e-142  -3.2620951167306018e-117  9.3997629253151778e-143  -1.6692189607018630e-129  1.1886776158305179e-07  1.5343518518266090e-30  2.1556614884474427e-14  6.2149103909751275e-38  3.5376165360552521e-15  2.5713365976303797e-85  5.0596348144103190e-39  1.9685773942751889e-37  5.7585649530586558e-42  1.6867911685197852e-45  2.7036308781504850e-26  1.2602787119689290e-50  3.3853450343188106e-38  -7.9011455368234906e-98  -6.7023634468657231e-58  1.0102538630147414e-27  1.9439891522589539e-59  5.9933866028049005e-47  1.2956722338497869e-36  -1.6779749741536546e-52  6.1970666527078367e-14  -2.9794982991585038e-68  6.7303083152677773e-54  1.1957614219653739e-61  2.4436033113745451e-124  1.9119209900486391e-27  6.6256541498903109e-27  -2.0411698515223831e-94  -3.2084015179709551e-31  1.1600997246126118e-20  -2.1678597070021712e-42  4.0888353015724708e-115  2.1923187472015822e-34  -2.7061076693319150e-59  2.7954397821738453e-34  1.9869119003174343e-71  6.6903984553273133e-27  -2.5979781652068433e-55  1.6917632933098877e-21  6.7323849820463444e-45  -3.2537987399733893e-76  8.6224213676287964e-82  -1.6485248153945774e-83  2.0249104431806745e-69  -1.3591574285981661e-80  1.0910250156641460e-90  -1.3020565929068744e-68  2.4379792905342859e-34  1.2028758009064536e-34  1.0912157302587066e-74  4.8555950434962983e-91  7.0530984408436145e-43  2.5637895545035211e-54  -8.0371710053999189e-53  2.9671929343092457e-116  3.1386273251613717e-27  1.4989468221712918e-82  -5.5396002673957678e-62  6.8581322333396307e-57  7.5302091429691880e-43  3.6054193728312216e-59  -1.2073251043487455e-58  9.9014740684802612e-76  3.0809196686408354e-117  1.2821115058808548e-42  8.8323368848321638e-36  6.7346159170847512e-67  2.3887419409964014e-66  1.2003256841817638e-112  6.6575340818418953e-53  5.8279406417174565e-49  -2.5832277261028037e-59  -1.9149112669678041e-116  -1.1770856511250009e-52  2.6465588499480984e-86  1.0416358418222391e-67  -2.1128499153773430e-46  -6.5600229607287296e-67  -9.9008028132613458e-44  -5.8621537673015899e-76  1.2152266050445767e-59  -1.9395048206069990e-102  3.7638085954670454e-87  4.2549515845856977e-77  3.8736614811029165e-73  2.1800536298883952e-93  -2.9907942085637443e-66  5.2146891052529381e-64  -2.4422300950737828e-79  -1.4460500498085876e-89  -8.2897919972437830e-69  -3.1738141046701206e-81  3.3675732118211379e-58  -5.2950242048798315e-95  -1.8397091237728167e-74  4.2026061367969481e-69  -4.2845175238471431e-57  7.4779977585933840e-110  9.7363075251027946e-82  1.2085953071906421e-63  -1.4207979669914300e-92  1.1187647577551273e-89  7.7087424672230419e-106  9.5939739283868012e-117  1.9248450841995659e-117  -1.5992838381630883e-112  -2.6791877884047405e-54  1.4328607796112815e-16  3.6574128360673191e-37  4.9466962503397152e-40  4.9709354162188419e-29  -1.5366373230990678e-130  9.9605116628157651e-39  -6.7759726738057341e-71  -3.9551795055624704e-52  2.2058547037792872e-27  9.9039902675752482e-34  2.9223574553243454e-44  6.4558940805729357e-27  3.0625703385334883e-23  -2.0090618917175323e-126  6.9667918469144800e-57  -2.4882362452255815e-60  2.2620232153432230e-68  -3.0315289507715612e-59  -1.2160825074958849e-52  -5.2704952502473447e-73  1.0567846554254433e-41  -2.6748893523366627e-50  8.4683754470979300e-59  4.9051721602839011e-70  3.2571566586386004e-53  -1.0904929638347974e-84  2.0752364937923735e-106  3.7550954446992090e-77  -2.2588885623883205e-62  9.0825409367014177e-37  1.7466784269797375e-75  -2.7818513925770050e-37  1.2181537198602489e-27  3.4624470029306810e-64  -5.6096866451339765e-76  -1.9589682962421208e-126  1.0648346830661446e-50  2.3163860047454703e-42  -7.5964949644645248e-70  -9.4655928000020781e-101  1.8349828311713876e-49  1.6970939766695388e-66  -3.4533247444045662e-52  -3.8481461423562373e-64  -8.4306768345857411e-65  2.2604204137047392e-70  -5.2300028470177387e-96  1.1966056402422977e-85  -1.3519720141207840e-51  2.1416259192476677e-41  5.2281988572529876e-43  4.0978401369616127e-82  2.3809757825950592e-66  -1.9672967327954306e-63  -3.4791566270870168e-78  4.9455609003738692e-50  2.1934398566707723e-90  1.3479981660658882e-100  -1.3180155103208603e-81  9.2683865128549328e-59  -4.3371286455433131e-75  7.7047844523638705e-66  -1.2055139539205274e-88  4.8237899940814265e-60  4.1274608549789692e-102  -5.1767291916143516e-95  7.8496587546695604e-51  1.7965473170165279e-68  -5.7722188892758377e-72  1.7410094182199227e-54  -3.5433280469821648e-46  -6.6564379884123752e-55  -1.9673485504308804e-89  3.7454390094680023e-96  -6.8740954533099075e-65  7.2678362461309194e-84  1.0428975447461214e-102  2.4897088681452236e-99  6.4179392865920931e-112  1.4189759066011141e-119  1.3345579095997526e-79  1.7967136902165105e-36  -6.8746205589130814e-48  -5.7323986146268813e-45  1.0342760930956645e-51  -1.5511243996359506e-59  4.6638232120670924e-52  -4.2455857839085051e-93  -3.0242753198343646e-60  -8.6631161269641798e-72  9.3389633686660436e-81  6.4097805136352209e-44  -1.9035351433922667e-72  6.6009068865465824e-52  8.6474852904097620e-36  -9.7840253681086358e-88  1.8331392654806206e-76  -1.2724976553003270e-59  6.3942622132346273e-87  4.4202060263150825e-74  -3.0551104932647099e-60  2.2732166665300118e-52  -5.0875172374539405e-69  -7.0252529046029693e-53  6.5662069846202559e-59  -6.7286985628322724e-91  -8.8242345395151565e-97  -2.3619834121897452e-86  1.4139387063825325e-61  2.2233447375455204e-62  -5.7360538107402058e-107  1.2992516412154694e-96  2.1078794873936267e-70  1.2722171075468391e-78  1.5313007378865277e-108  5.5126809551500370e-121  2.3119555682340984e-101  2.3547315577037757e-128  2.3476333751421042e-72  3.9654286005433385e-60  -1.3261216513152215e-89  8.1078234910552717e-80  3.7344869314765582e-48  -1.8351581505552503e-96  -2.8491269407784305e-74  -5.9403980290862965e-69  -4.3870983341619278e-60  -5.5485468635028290e-97  1.0772104897770911e-106  -2.7391666426593036e-99  2.8916674364714891e-88  1.1810595758195727e-61  1.6219663242503439e-131  1.6050143718484178e-131  2.9687361710302440e-123  3.1505814912133647e-91  1.1001487018430133e-106  2.6444755452567192e-161  -1.8783105305101181e-153  -1.9619277298204590e-147  -3.1138311479913317e-141  -3.4458035620580461e-134  3.0947188045342674e-123  1.0142682014119529e-113  6.4263145676070280e-103  3.7420860693880763e-92  -6.9603089354602427e-85  -6.2229002291958829e-84  -1.6760048996389377e-82  3.6775692078953632e-86  1.0439481915778674e-90  -6.6167016303047364e-96  -6.5289363329481843e-99  4.7029974174628080e-105  1.0251031568997129e-115  -9.8410174162349742e-126  -1.0249473369422318e-136  -3.1737877873715253e-148  8.9251872130279478e-162  -1.0173711011042175e-168  1.8564461923639273e-169  7.0558480620890914e-175  0.0000000000000000e+00  -1.3265938451981531e-173  -2.5849741283994294e-161  -8.0955223153720989e-154  -1.1707963918823953e-147  -1.7252949415911954e-138  1.0693828218624826e-130  1.0915667906960307e-131  2.5885940713160391e-126  -2.5015882085223336e-131  3.6351741153314231e-137  2.4726949545081882e-130  -1.2009586990539709e-130  2.0500199358704767e-128  -2.2511888500324370e-129  2.3060251992241345e-133  -1.3808990979296354e-128  3.9526763982201176e-128  -2.6239493952140370e-126  -1.0072791824723264e-117  8.0440497946557829e-116  1.4735215999573762e-110  -4.1879372508551619e-101  5.2342580986754385e-