<?xml version="1.0"?>
<VTKFile type="UnstructuredGrid"  version="0.1"  >
<UnstructuredGrid>
<Piece  NumberOfPoints="2868" NumberOfCells="5400">
<Points>
<DataArray  type="Float64"  NumberOfComponents="3"  format="ascii">0.534923 0.326073 0  0.510642 0.314196 0  0.466125 0.293082 0  0.436448 0.281205 0  0.409468 0.275927 0  0.368998 0.270648 0  0.35281 0.275927 0  0.381139 0.302319 0  0.405421 0.326073 0  0.410817 0.33531 0  0.408119 0.349826 0  0.400025 0.357744 0  0.375743 0.368301 0  0.329878 0.392055 0  0.297502 0.432963 0  0.282663 0.476511 0  0.285361 0.524018 0  0.298851 0.572845 0  0.317737 0.6045160000000001 0  0.337972 0.6361869999999999 0  0.360904 0.674457 0  0.368998 0.69953 0  0.359555 0.7219640000000001 0  0.360904 0.757594 0  0.370347 0.766831 0  0.381139 0.762872 0  0.390582 0.741758 0  0.404072 0.720644 0  0.424307 0.707448 0  0.447239 0.702169 0  0.480964 0.704808 0  0.479615 0.6889729999999999 0  0.468823 0.675776 0  0.447239 0.6691780000000001 0  0.428354 0.6691780000000001 0  0.410817 0.6639 0  0.404072 0.653343 0  0.395978 0.628269 0  0.387884 0.59132 0  0.389233 0.576804 0  0.397327 0.557009 0  0.410817 0.547772 0  0.424307 0.546452 0  0.437797 0.55305 0  0.44589 0.5662469999999999 0  0.441843 0.582082 0  0.439145 0.5979179999999999 0  0.449937 0.609795 0  0.468823 0.603196 0  0.479615 0.59 0  0.489058 0.570205 0  0.494454 0.546452 0  0.505246 0.522699 0  0.522783 0.509502 0  0.55246 0.494986 0  0.586185 0.484429 0  0.615863 0.48047 0  0.64554 0.473872 0  0.6671240000000001 0.461995 0  0.683312 0.451438 0  0.696802 0.435603 0  0.703547 0.417128 0  0.7116400000000001 0.393374 0  0.7183850000000001 0.37226 0  0.7251300000000001 0.364342 0  0.739969 0.353785 0  0.7453650000000001 0.344548 0  0.7453650000000001 0.327393 0  0.737271 0.318155 0  0.7183850000000001 0.316835 0  0.7008490000000001 0.319475 0  0.677916 0.318155 0  0.650936 0.316835 0  0.610467 0.318155 0  0.57944 0.324753 0  0.559205 0.328712 0  0.5389699999999999 0.326073 0  1 1 0  1 0 0  0 0 0  0 1 0  0.532238 0.32476 0  0.528748 0.323052 0  0.52421 0.320833 0  0.518311 0.317947 0  0.503447 0.310783 0  0.494093 0.306347 0  0.481933 0.30058 0  0.452151 0.28749 0  0.392327 0.273691 0  0.379141 0.271971 0  0.360474 0.283066 0  0.369797 0.291752 0  0.391424 0.31238 0  0.399335 0.32012 0  0.40958 0.341964 0  0.393939 0.36039 0  0.386028 0.36383 0  0.364248 0.374254 0  0.349304 0.381994 0  0.315801 0.409841 0  0.292986 0.551616 0  0.350934 0.657818 0  0.360127 0.737055 0  0.360566 0.748664 0  0.385245 0.753692 0  0.396447 0.732578 0  0.466301 0.703661 0  0.459439 0.672908 0  0.418442 0.666195 0  0.400553 0.642441 0  0.39255 0.612619 0  0.389913 0.60058 0  0.392752 0.568197 0  0.444131 0.573132 0  0.458149 0.606926 0  0.5005540000000001 0.533026 0  0.571522 0.489019 0  0.632637 0.476741 0  0.689177 0.444553 0  0.708121 0.403702 0  0.715453 0.38144 0  0.732406 0.359166 0  0.7453650000000001 0.337089 0  0.72906 0.317581 0  0.629879 0.317522 0  0.59293 0.321884 0  0.568003 0.326991 0  0.55202 0.327775 0  0.546493 0.327054 0  0.542241 0.326499 0  1 0.9 0  1 0.8 0  1 0.7 0  1 0.6 0  1 0.5 0  1 0.4 0  1 0.3 0  1 0.2 0  1 0.1 0  0.9 0 0  0.8 0 0  0.7 0 0  0.6 0 0  0.5 0 0  0.4 0 0  0.3 0 0  0.2 0 0  0.1 0 0  0.1 1 0  0.2 1 0  0.3 1 0  0.4 1 0  0.5 1 0  0.6 1 0  0.7 1 0  0.8 1 0  0.9 1 0  0 0.1 0  0 0.2 0  0 0.3 0  0 0.4 0  0 0.5 0  0 0.6 0  0 0.7 0  0 0.8 0  0 0.9 0  0.535686 0.5031910000000001 0  0.753987 0.733359 0  0.167145 0.741436 0  0.173378 0.257204 0  0.733497 0.159862 0  0.554096 0.15788 0  0.849187 0.479053 0  0.488793 0.838452 0  0.138507 0.5592 0  0.30686 0.154944 0  0.348904 0.890523 0  0.058006 0.065099 0  0.06984899999999999 0.937917 0  0.93633 0.939704 0  0.934625 0.053613 0  0.343397 0.333452 0  0.473272 0.639943 0  0.433266 0.638072 0  0.415174 0.58269 0  0.533435 0.545042 0  0.390848 0.340652 0  0.53655 0.320242 0  0.127966 0.393775 0  0.83861 0.850455 0  0.635242 0.8551299999999999 0  0.852158 0.633441 0  0.653427 0.626848 0  0.861226 0.24292 0  0.166128 0.12976 0  0.216875 0.8698709999999999 0  0.458305 0.11179 0  0.84446 0.101633 0  0.202024 0.642528 0  0.644825 0.115855 0  0.671342 0.218358 0  0.251354 0.286186 0  0.262388 0.75153 0  0.063044 0.751571 0  0.068189 0.242962 0  0.435781 0.9053949999999999 0  0.934144 0.451133 0  0.568393 0.237622 0  0.814984 0.395506 0  0.752951 0.517227 0  0.456254 0.780699 0  0.073352 0.531116 0  0.337731 0.206071 0  0.363213 0.960371 0  0.330742 0.363592 0  0.516613 0.55705 0  0.369057 0.332992 0  0.500926 0.617309 0  0.498004 0.665534 0  0.412142 0.61178 0  0.454233 0.6366039999999999 0  0.422782 0.567496 0  0.541193 0.5214800000000001 0  0.439761 0.65557 0  0.5163 0.533672 0  0.414775 0.64562 0  0.40073 0.576135 0  0.430362 0.5880339999999999 0  0.385432 0.351492 0  0.400298 0.335397 0  0.398325 0.348194 0  0.528702 0.314885 0  0.540814 0.322334 0  0.534477 0.322953 0  0.619095 0.743583 0  0.885162 0.737972 0  0.08076 0.668849 0  0.90734 0.36634 0  0.09468699999999999 0.868937 0  0.759838 0.912152 0  0.901518 0.540898 0  0.747285 0.607479 0  0.229182 0.071641 0  0.06915399999999999 0.450091 0  0.244775 0.203309 0  0.076534 0.331755 0  0.897847 0.167826 0  0.578909 0.911415 0  0.07713299999999999 0.146341 0  0.477215 0.203448 0  0.922631 0.869341 0  0.517415 0.074785 0  0.297026 0.827793 0  0.7832710000000001 0.246505 0  0.74519 0.061079 0  0.36033 0.069068 0  0.210313 0.475228 0  0.859426 0.928758 0  0.5745479999999999 0.609182 0  0.243069 0.383398 0  0.283099 0.934598 0  0.417416 0.843141 0  0.643942 0.553164 0  0.112687 0.079336 0  0.281357 0.658386 0  0.765043 0.436177 0  0.611361 0.198486 0  0.234496 0.58911 0  0.206479 0.702638 0  0.679608 0.155818 0  0.62682 0.259978 0  0.690538 0.264164 0  0.448938 0.956308 0  0.808154 0.328403 0  0.379583 0.91913 0  0.308083 0.297769 0  0.312358 0.730249 0  0.563101 0.278576 0  0.435597 0.746198 0  0.385475 0.225229 0  0.572248 0.518034 0  0.357864 0.35422 0  0.497647 0.641694 0  0.458101 0.655768 0  0.360474 0.310727 0  0.467038 0.620139 0  0.47798 0.659909 0  0.41102 0.628072 0  0.48324 0.609015 0  0.427544 0.617941 0  0.388633 0.328253 0  0.405336 0.599404 0  0.408351 0.565178 0  0.42395 0.600985 0  0.431562 0.576523 0  0.424905 0.6551979999999999 0  0.398064 0.58782 0  0.427739 0.557934 0  0.5192909999999999 0.303443 0  0.53142 0.320293 0  0.5449000000000001 0.323642 0  0.537166 0.323513 0  0.153974 0.920841 0  0.9181859999999999 0.67343 0  0.759946 0.820588 0  0.5375259999999999 0.783091 0  0.816532 0.545843 0  0.813991 0.178083 0  0.836774 0.702023 0  0.149815 0.318856 0  0.662287 0.923338 0  0.680146 0.791192 0  0.708961 0.663172 0  0.9372779999999999 0.287318 0  0.574622 0.6881660000000001 0  0.5894740000000001 0.076262 0  0.502822 0.926683 0  0.222269 0.811068 0  0.380457 0.164786 0  0.15321 0.684154 0  0.458063 0.051413 0  0.161702 0.056026 0  0.199351 0.198818 0  0.298946 0.09553200000000001 0  0.902465 0.795949 0  0.121139 0.791477 0  0.906269 0.112287 0  0.056109 0.822332 0  0.512172 0.13237 0  0.940964 0.741805 0  0.888887 0.408777 0  0.354543 0.825964 0  0.808736 0.068638 0  0.068507 0.394071 0  0.719105 0.563843 0  0.247287 0.149664 0  0.293062 0.237128 0  0.240524 0.434997 0  0.141255 0.623289 0  0.945202 0.160621 0  0.502914 0.247629 0  0.144669 0.480811 0  0.665025 0.060817 0  0.728047 0.224344 0  0.861995 0.313312 0  0.200068 0.534235 0  0.253262 0.965623 0  0.893804 0.49307 0  0.604391 0.572456 0  0.947088 0.345347 0  0.439372 0.227307 0  0.629847 0.159823 0  0.273405 0.880181 0  0.302744 0.776823 0  0.781502 0.295365 0  0.275342 0.349602 0  0.7283849999999999 0.472798 0  0.229136 0.246478 0  0.807794 0.480346 0  0.709476 0.112786 0  0.275506 0.694991 0  0.771674 0.394419 0  0.449715 0.861802 0  0.419159 0.799696 0  0.674851 0.503139 0  0.280443 0.61016 0  0.572443 0.192538 0  0.393113 0.87525 0  0.405555 0.948428 0  0.330942 0.934103 0  0.540509 0.597101 0  0.312763 0.6689310000000001 0  0.254368 0.540179 0  0.595265 0.25915 0  0.606679 0.234099 0  0.657131 0.279138 0  0.722458 0.279478 0  0.333 0.308056 0  0.351529 0.246142 0  0.455714 0.7257940000000001 0  0.585239 0.295143 0  0.340062 0.72492 0  0.545593 0.293773 0  0.555449 0.545426 0  0.414311 0.737314 0  0.590854 0.502323 0  0.350507 0.368444 0  0.484423 0.625665 0  0.483899 0.674542 0  0.378137 0.317274 0  0.446416 0.646404 0  0.373532 0.347654 0  0.446876 0.619769 0  0.466106 0.666068 0  0.437545 0.609254 0  0.434988 0.565726 0  0.41462 0.656829 0  0.418803 0.556961 0  0.398425 0.327446 0  0.517803 0.310421 0  0.549516 0.322918 0  0.57701 0.842889 0  0.8291269999999999 0.773906 0  0.643235 0.684732 0  0.134281 0.207734 0  0.865997 0.055966 0  0.680959 0.723345 0  0.165229 0.8415550000000001 0  0.54558 0.959672 0  0.783726 0.656439 0  0.913315 0.595533 0  0.699439 0.860667 0  0.785839 0.125076 0  0.551673 0.037713 0  0.9200970000000001 0.223214 0  0.206406 0.299726 0  0.087064 0.596401 0  0.935644 0.394252 0  0.964557 0.252582 0  0.230124 0.928346 0  0.120579 0.271764 0  0.8572149999999999 0.524082 0  0.7670979999999999 0.5551469999999999 0  0.936094 0.507131 0  0.804064 0.59585 0  0.700565 0.608273 0  0.429773 0.174231 0  0.117746 0.727333 0  0.5389620000000001 0.730231 0  0.862761 0.359173 0  0.821444 0.284046 0  0.193552 0.35818 0  0.234923 0.505555 0  0.193209 0.421217 0  0.220144 0.755896 0  0.594015 0.131642 0  0.283813 0.195855 0  0.517519 0.213961 0  0.553509 0.639116 0  0.280391 0.378018 0  0.852183 0.436817 0  0.746983 0.197173 0  0.821806 0.221318 0  0.449853 0.828453 0  0.883758 0.453926 0  0.183484 0.589542 0  0.348384 0.129314 0  0.255254 0.838525 0  0.504849 0.798516 0  0.320344 0.863432 0  0.611669 0.525425 0  0.265864 0.804962 0  0.72056 0.521442 0  0.613372 0.6101220000000001 0  0.481262 0.881068 0  0.655778 0.191988 0  0.701921 0.196918 0  0.5658260000000001 0.5731810000000001 0  0.46914 0.240927 0  0.343219 0.173284 0  0.888786 0.278502 0  0.244113 0.6750930000000001 0  0.739546 0.417914 0  0.784023 0.355942 0  0.326805 0.265549 0  0.248616 0.6
[...]
<PointData  Scalars="f_17"> 
<DataArray  type="Float64"  Name="f_17"  format="ascii">4.8516419698878177e-153  -1.0781071408343966e-123  4.6809377494879773e-86  -5.7381337619669124e-83  -1.2090504713965676e-81  3.5859955057912843e-98  -4.5393913789847246e-100  -4.9836037779770514e-127  -6.2594972823408917e-157  -1.4583542314059118e-157  1.0144311300971674e-164  7.4110128642280289e-164  -5.5007782717778114e-143  1.9152139361345901e-123  1.5132205485183992e-119  1.1234000753756985e-126  -1.9202803686348769e-123  2.9572717019269777e-122  -7.8815841351849018e-123  1.4628291461377719e-124  -2.3561307174995505e-122  -1.8022681703125722e-122  5.1717342271873956e-115  -2.2773440689722021e-103  -1.9684471323762358e-95  -6.8748450109677340e-97  3.0478951107767092e-98  -2.5529725276189897e-88  -8.4620540274886219e-89  1.1951701693488007e-81  9.7671270583443274e-68  -1.3904833261192001e-77  6.0732983590677645e-79  5.5648782244565918e-87  7.3571258516006668e-96  1.1572495831341796e-115  3.1440711122490128e-107  2.1252756895631257e-105  3.5818731820330462e-127  4.5572640347798800e-131  4.3200073540235784e-132  2.3808322579679846e-132  9.2424912251320574e-142  2.6190377035102911e-141  1.1412741936950500e-137  8.4528722007199203e-116  4.3433257303341477e-105  4.8543420770124584e-96  2.2155482531928315e-82  1.0406625813532757e-79  6.6431674031608671e-82  -9.5232727436583987e-80  3.0156483813248896e-88  -7.2424365037537801e-81  2.8912283614291485e-72  6.3151046067442614e-72  1.6750439170544474e-72  9.8621901943651813e-68  1.5738643624491868e-69  7.7655280650657286e-67  -1.4837744017748675e-59  1.4336224090198261e-62  2.0155444754835682e-69  1.8970391410015720e-87  1.1177992433282931e-79  5.2427687936694632e-69  4.1176452491911799e-71  4.4749655316543717e-67  5.6403143582258873e-68  3.0470740249910941e-72  -8.4914292204692337e-72  3.4861557586061145e-76  -6.7906380944530839e-75  4.4456218315574529e-74  5.5145570128166254e-92  -1.7388835976736380e-114  2.8178769342074207e-142  6.4960562706044901e-05  6.3239155899988349e-05  -2.3774915777895431e-79  5.8301413682405680e-79  4.5178609258911196e-150  1.9797345939724393e-148  4.5341147192728808e-138  -3.9933519941981899e-134  -6.4871521970649340e-115  -8.8613923503365222e-104  6.0716814561756326e-96  4.9192857678206624e-83  -1.3702981568241979e-91  1.3121719050010494e-90  -7.4829344237829937e-111  -1.5228600745175483e-118  -1.2743012879653833e-136  -5.6952750746358616e-147  -1.7503723098943844e-157  -2.2979907856647031e-155  -3.8530052662180647e-144  -4.7457080244695279e-133  3.3148461693696980e-124  -2.6490827267085754e-119  -6.6783797022196247e-124  9.6520766609925830e-123  -1.3529629037752552e-113  -4.0923782353157606e-112  1.2419290634361054e-99  4.8065303026787044e-90  1.2857553304867293e-76  2.5169631714819328e-87  1.6902945204827466e-105  4.4958893424302404e-105  1.6506092431535183e-105  1.9379688099626497e-116  7.7450139333195921e-132  9.5842933537888334e-127  2.8142846918906690e-88  6.1433922221054959e-89  7.0298676024013810e-72  1.9705488920459952e-68  -1.3066970528722802e-59  4.3304585439811910e-68  1.0199552299986302e-77  1.3950772914505461e-69  1.3279880478072356e-69  -4.1233044606282682e-73  2.4522093065734842e-74  2.0097029353136575e-82  1.2905380161797036e-102  1.1311018670567774e-120  2.5621771747659299e-130  1.0762533713630234e-140  1.0921981797716801e-04  1.3766146477179510e-04  1.0905702504166156e-04  1.2806661109015111e-04  9.8977423914829032e-05  1.0309350177121782e-04  8.0550788231173670e-05  8.9049777854498404e-05  1.1759320908514226e-04  7.2458858987111451e-10  -5.0043742656467590e-17  1.4696485439908090e-24  -4.6247674289832398e-32  -2.3782695251985026e-40  -4.9770215382724076e-48  -2.7822938143937989e-56  -8.6506179383225541e-64  -1.3440804910212574e-71  4.4461891365866072e-71  6.7263752679919887e-64  -1.3307242376324679e-55  6.3731917123879845e-47  -7.2711875430747771e-39  2.0258104830687339e-30  1.8517521711819162e-24  2.9822948959374533e-17  1.1631525961298006e-09  -1.3103501448336133e-81  -2.3467041816353106e-81  -5.8322954458505447e-87  3.8866840403568143e-94  -3.3798680765402178e-101  -2.3206911556331892e-101  2.8893987355216894e-94  5.4515188070397732e-88  4.0265185657281826e-82  -2.7408845023682673e-81  6.0664657399841432e-19  1.9044121814474328e-89  -6.3434546641969987e-80  7.2817142538451286e-29  1.0756743908944138e-46  4.1488237211920467e-20  1.2194036866160918e-44  -8.3298002795408251e-109  2.4727761756261003e-68  4.0902306077896813e-55  -8.8069394489093669e-79  1.8600624965444152e-76  4.8315426417537403e-08  4.7215047150617230e-08  -4.0460709507398001e-114  7.2521054212373773e-70  2.7180987329303218e-87  5.3758034571077058e-113  1.9665506494084347e-70  1.7965952427463986e-144  5.3457350298661777e-138  -2.1585180388268817e-93  2.9982913006322165e-13  1.4452314849504974e-29  6.7389967282145446e-13  -1.6165576809276055e-32  1.7817496470277605e-15  -1.6516403252063200e-69  3.3722316707416472e-72  -1.1715977414578982e-51  4.2778869354452547e-15  5.3484160813232909e-98  1.1477929556530243e-33  -2.2574534895308797e-44  -3.4464214370346786e-88  2.1812224012093011e-87  9.2158401232843690e-89  -4.6187471692525059e-81  2.9121598771521366e-43  1.2510812788274348e-07  -1.7122918107444900e-64  7.0538401092084775e-28  -2.9819066014014651e-34  1.2600561214170847e-60  2.0423726695030903e-107  -5.4657600974989748e-77  9.2344592490995540e-55  6.4546380105332294e-114  -2.2058045132175872e-70  -6.7962763723867497e-124  8.7541831351847437e-64  -6.5478762791192510e-61  1.2154815483312933e-103  1.8412057759970346e-78  1.6230253299963743e-122  -3.5303351985344081e-72  1.1106977732363895e-86  4.5284144104405357e-79  1.4056608966521712e-96  1.0386210672672109e-122  4.3649991590759793e-113  -5.2621446233519003e-143  1.4616562493198123e-146  4.3891000217612607e-154  3.8567998412241995e-127  1.0734190391071709e-130  7.0285185672004690e-149  3.5749174081322051e-30  5.8042208328255730e-13  -9.8131426731711340e-96  4.6377469585443700e-14  6.8675759399261276e-77  1.1942712513554087e-18  1.9709600739258109e-13  8.6797841518218958e-25  -2.9715172150136081e-63  -3.1411181473289933e-100  -3.9556870524597071e-75  6.0789334619297627e-89  1.1492519147430587e-13  6.7935728209144532e-31  -1.7238461749469244e-75  4.6634625804943247e-60  1.2119048019722440e-07  1.0291359314944542e-45  2.0353207690771605e-67  1.0808821628321731e-28  -7.6135466879252847e-25  -1.5645169625220450e-55  1.2009724137639821e-108  1.4260600033398689e-13  3.9754104277712510e-45  -3.9279055392803373e-101  1.3657596061411878e-61  4.3160194225881833e-56  7.4916636298276245e-47  -5.8218772099143108e-75  3.2098168473671613e-106  1.6062090126776700e-40  -9.2185694416193645e-49  -6.8506825266007513e-106  2.3239336095777981e-91  4.7428561283139620e-34  9.9425287316419377e-58  1.2242013810957279e-50  5.8163399181005130e-43  1.1856908027702168e-33  2.1000950247373551e-49  -1.2545608376519154e-98  1.5024482784867946e-96  -5.1276674443546037e-81  1.1263864123087001e-72  -2.8644276149377792e-74  2.1215213697711470e-63  -3.1448225532079507e-123  8.7136314579717146e-61  2.1428241327397192e-77  -3.8211304656080086e-117  1.0192919018818010e-78  6.2558877977118255e-69  4.3772830415969665e-96  3.2721664188715528e-73  6.7532846137284755e-95  2.8950912438264608e-135  2.8615065994660662e-112  1.7707666965953489e-122  7.2677169777924750e-104  6.2920243073097452e-122  7.0558820779911461e-96  2.5975026770806505e-121  1.2442120433499404e-132  5.5579968876731910e-115  3.3207954975951276e-138  7.0868431460648761e-130  5.2935827832215854e-142  8.3187775238593503e-71  2.2455613202552872e-07  6.6664217455435343e-19  2.4225982967633637e-43  5.3062441872387985e-21  3.3655767921676186e-21  2.7701604180582875e-13  -9.6493971478486884e-87  9.2610024467146180e-25  2.3434354230434382e-24  5.1150121575445525e-24  1.6738599967357154e-08  4.0619984408409956e-43  -1.1273942479978445e-38  5.0695667284435105e-37  6.6293591481278847e-78  -1.5952915503925514e-64  7.9805991212917662e-96  -2.0756037126501437e-47  -3.5424589178154514e-69  -2.3317995916939597e-73  -3.3610834435578595e-61  3.4579619525319289e-08  2.5169573857664071e-83  1.3349252914993327e-08  8.7206145605070020e-83  1.4109200780350429e-51  1.5124076575769950e-07  8.7481749019698769e-14  -2.4136260297719889e-65  1.5443495108420785e-20  9.7026245494116245e-96  2.6964890450312569e-32  -2.6895085800016022e-67  -4.8385843981240575e-82  -9.4354641262376444e-109  4.8334012740769210e-102  9.7209609217834381e-08  -1.9254260145133519e-77  5.6517122689854328e-101  9.6045863782245460e-32  1.9953550499493863e-40  3.6468974993751830e-20  5.1403952501915350e-109  3.3058389680168970e-63  7.2780318573004428e-14  2.6854165653681320e-47  1.1130139244527094e-07  1.8719738535260636e-66  5.4301110095302691e-40  1.7149719697235591e-66  -5.5384146336236543e-82  2.0690937084907574e-39  2.2301999742920098e-102  1.4571169504297099e-41  1.6296324543588108e-80  4.1833537019445988e-27  1.4535792982937835e-27  2.6252118110059501e-100  5.1124628107783525e-42  2.9170862547308145e-49  -1.0085197180762569e-65  -2.3722295098203050e-50  6.6899836997854771e-114  1.3303843700852333e-53  4.8654547150484779e-50  1.1959147101662495e-48  1.4353702957519466e-55  8.7405473971356211e-54  1.0778502005013666e-112  -4.8398968650531384e-114  9.9263823738139773e-66  9.2809649426567292e-57  8.0892529055093728e-58  5.1976360373819136e-52  1.0951801836905968e-107  -1.3807382034795217e-86  -2.1863702044665003e-72  1.0791931797775421e-73  -1.1197515998372727e-104  4.9092955738607395e-97  5.7824841004500469e-62  7.0155245398764458e-81  1.3642228274894573e-63  5.7148783097938188e-124  9.7757032736086777e-71  -8.4653178736478471e-70  -4.9890371361263183e-127  4.7642578906252647e-86  -9.9363392877989572e-133  1.1281345803937564e-86  2.1622552370507946e-78  5.4578422549833861e-96  1.8238888324151551e-131  8.9783230881803053e-106  1.1738286848026414e-131  1.4152150885420090e-145  -1.3082485221091730e-123  2.3429691342717857e-119  2.9275509657449236e-35  2.2786785880157638e-14  4.9033246590918786e-30  -9.2693717830110032e-76  3.7401387595392112e-14  7.3734192655482244e-25  7.4299898623324216e-78  2.2277615907938434e-36  2.0295102161762431e-18  4.6719338391998277e-08  4.2008442975422929e-24  1.8168551223871305e-21  -1.9637588785520322e-39  1.2535555929276524e-08  6.5773780024492141e-87  -2.3143090622223139e-103  2.0854822793396942e-08  1.1002990068175122e-07  1.1242784722247627e-67  -1.2779384679321019e-82  1.3563205390978986e-19  3.3438440615639290e-26  1.8299244440875969e-08  3.7743269885267836e-19  3.8026073899920356e-31  1.4309931725487965e-59  -7.2117163525579587e-91  -1.2162928521493758e-44  6.2235803397009569e-20  9.5966326186163981e-29  1.3484591360715814e-93  5.6749654327003582e-117  8.4984967015265686e-101  9.3885775338220767e-85  5.8196520217445988e-40  2.7688346277645552e-74  -1.4949388232153491e-60  -3.3296250907139606e-45  6.5248351471771733e-111  3.8732112037279954e-20  1.7144830251909356e-33  3.2701492898158596e-21  1.6841513351115632e-51  3.7768385017929426e-14  9.5796589481619801e-105  -8.1933495865725454e-64  2.8522070097413620e-72  1.7127577855630143e-48  2.8074175244554093e-61  4.5388555502349311e-55  6.3384331355625420e-74  -1.7374134131932008e-40  -1.0276372148777189e-39  6.9727181366460399e-43  7.1272617394863352e-42  -9.7259706423681933e-37  -3.7332420550916042e-53  -1.3031613655335871e-67  -6.5168382997014540e-70  1.2283208741948089e-14  -1.2088083218314543e-98  9.7573884382787403e-49  -1.6528761008825653e-45  -1.7279940745617278e-92  -5.7211428930192144e-106  3.3222226025085894e-34  5.3505273593386864e-34  1.5881025207326670e-104  -6.3543244096826420e-78  -4.5022529084608719e-77  1.2121670299017974e-63  -6.9762900793683849e-115  2.0525925276840643e-81  -4.5226918273434176e-37  -5.1373444527135683e-50  9.9358636649987491e-57  5.0641273310885058e-105  2.1021962895734070e-51  1.5248845967773970e-50  6.5483544729150498e-118  9.2804224905694797e-115  1.6839391314488510e-65  3.6751323230279001e-43  -2.1832345789705167e-81  1.0925104539001576e-84  2.2072999498608305e-90  9.9474021787111819e-74  5.0858851294507844e-59  2.4968729679291489e-56  4.6962129180120856e-64  2.8894036450683414e-64  -3.7166003423573061e-59  8.3290105887454946e-97  7.8492281666460754e-48  -8.6289877487606611e-89  5.5994523003000421e-50  -3.6637391768016282e-95  5.1465107593692215e-60  -1.3071615747695618e-78  -1.6237866548547995e-82  -3.2260918400195004e-71  8.6818207749878430e-90  7.9333718352044104e-55  -5.8704589636152648e-80  -8.5503754006563522e-68  -3.3563330734879542e-109  -7.0189352610283280e-104  -2.2869284409837861e-102  -1.6717935072121004e-84  -3.8542959129310354e-133  1.6895917229550103e-114  -1.7280793412601149e-134  -8.3924434025707660e-127  1.4947975617113433e-07  2.9701762462325714e-30  2.9219449164908557e-14  1.5635087540522954e-37  4.9302755682652729e-15  1.6108902609622450e-83  1.2913195763703072e-38  4.5331266510964716e-37  1.4941567501211992e-41  4.9824759374043615e-45  4.5226378104850077e-26  3.9722759525463663e-50  1.6417870735126716e-37  -2.6073260442005563e-94  -3.4508252386471623e-58  1.6996502840731046e-27  1.3431744979556021e-57  1.9792915860731002e-46  2.9142781137266670e-36  -3.3627431476477200e-52  8.4365601419550536e-14  -8.3317130466905972e-67  2.3636659197947427e-53  6.9525274889665928e-61  -6.8231414882930862e-118  3.2885819375622697e-27  1.1194400917217823e-26  -3.4247054045142049e-92  -5.6321766806301388e-31  1.7622420517543116e-20  9.8904146866680992e-42  1.2301493180974958e-109  4.1798989434818534e-34  2.4704686848329090e-59  5.7677819227695999e-34  1.6799025879059716e-70  1.1436634975410149e-26  -7.2560530062485691e-55  2.5119602545006555e-21  1.7939913756849847e-44  -8.6109766358837902e-76  1.9409352445469687e-80  -1.5476604915902741e-82  1.5990285299407413e-68  -2.6659579932914152e-79  -1.1822361833212501e-88  -6.2931396682467976e-68  4.8599036267461934e-34  2.2613486820195176e-34  -1.8786666866880278e-74  1.9315075047715284e-89  1.6512788744329192e-42  7.1007790400334526e-54  -2.9972876173454735e-52  -2.3121748377446583e-111  5.3732878587729358e-27  4.7036374873338896e-81  -2.0578257091039668e-61  5.9088003919148239e-56  1.9648059296862665e-42  1.7216499135445568e-58  -4.6953592670839129e-58  1.3278336772079712e-74  3.1572984092943673e-113  2.9009416217141005e-42  1.6787529135627925e-35  3.9658711530811313e-66  1.6155560690906810e-64  -1.3899252362993942e-109  1.7273842557318760e-52  1.7216699276596110e-48  -9.0148573788612131e-59  -5.1328802331038310e-113  -3.5737494320874641e-52  -1.2750709162581983e-85  8.7624321997950316e-67  3.7788839815949203e-46  -2.2386279076222454e-66  -2.1596305314612772e-43  5.8728923258385257e-74  6.2866944531321702e-59  -7.0897427605769783e-101  8.4549385449100944e-86  1.3234388262100597e-76  2.6393599551397284e-72  1.3461380792848763e-92  -1.2537877328428975e-65  5.4493456196092051e-64  -1.0652455140063029e-78  8.7896037013858057e-89  -1.0069225466990771e-67  5.8341697916781130e-81  1.1978429469917866e-57  -3.4053251963220679e-93  3.5703178357029612e-73  2.2665728041224049e-68  -1.0810097735401690e-56  1.2282689856040284e-107  1.2162652404546646e-80  2.6687871911634434e-63  -2.3546385242276959e-93  1.6466831079587753e-88  5.1470654471534422e-103  -1.3015404067195628e-112  -5.6171930972681125e-115  6.5724782416510612e-110  -2.1142110186982493e-53  2.2722911971199138e-16  7.9741769612707479e-37  9.6958797530909263e-40  8.8929459454111511e-29  -6.4584095948034907e-123  2.5993066746122725e-38  -2.4685171315641762e-71  -1.1350844332454113e-51  3.6900232787902260e-27  1.8996020860422520e-33  7.3919829245023081e-44  1.0899401601810672e-26  4.8500869917191158e-23  8.2760561205873626e-119  2.7556820832834475e-56  -7.8061534947352635e-60  -3.4544512482607383e-67  -1.2762454976433793e-58  -4.0988535326864973e-52  -5.0071098890426301e-72  2.2859166974235028e-41  3.4958422880122171e-50  -9.9972539997746448e-59  2.3823933576289904e-69  7.8112968074315834e-53  -2.5643075051880640e-84  -4.7633017504341644e-104  5.3833650592581474e-76  1.6781378867256856e-61  2.2795971001518333e-36  -9.3599491744360666e-79  -6.3462438175826908e-37  2.0718352992813752e-27  2.0270049027242915e-63  -6.6898862487781944e-75  5.5463847094178443e-121  2.9540532201358072e-50  5.0236260679423977e-42  -2.9969029186853978e-69  3.9446802431204134e-99  2.3693914715225062e-49  2.7885874930134731e-65  -1.1452953059743200e-51  2.4469325852977544e-62  -4.4903174077632080e-64  -5.8361563487558563e-70  -3.7943275799284327e-96  1.2326582700975257e-83  -3.7671280518412041e-51  4.7227804006985664e-41  1.3378217299339788e-42  5.6020464648061045e-81  1.6099900140246205e-65  -5.4593138116698881e-63  1.4059587824707579e-77  1.2769487956318000e-49  -5.5069414990464303e-91  -9.1140815297314550e-99  1.4981925080925178e-80  3.6854327230125989e-58  9.0365714834475649e-74  3.3390083318524099e-65  -3.5362385694049491e-88  1.6879772946008593e-59  9.7951740607684414e-101  2.3193693961423038e-93  2.1191292585526057e-50  1.1230164359266100e-67  7.8967562310519213e-71  2.7367926633281047e-54  -4.1431048616694311e-46  -1.6849751452828327e-54  4.2305125614165496e-89  3.3500899227524211e-94  7.1383438752628425e-65  1.4160795378848738e-82  7.5188644057624635e-100  1.1333292421619008e-97  4.5425717770412883e-109  1.2943172217659770e-116  1.1390952122485435e-78  3.9790643022614839e-36  -5.4108565576165367e-47  -1.1176386584219944e-44  3.9611851438752525e-51  2.1121695307347922e-58  1.2256784005540693e-51  -1.1703181245657801e-91  -1.0906483875043931e-59  -6.3182465551302786e-71  2.1328906137044249e-79  1.3868354823843929e-43  -1.7581218322031277e-71  2.2221891043706279e-51  1.6734391902996020e-35  -2.7515519259781106e-86  -6.4714412445009508e-75  1.1062504188662178e-59  2.1493709684504387e-85  3.2467376147047406e-73  -1.1314356094285939e-59  5.7783001893300933e-52  -3.8114473417159580e-68  -7.2800612719917527e-53  2.5774297156735847e-58  -2.2276818994367463e-89  1.5874875912734023e-95  -2.1201577681216399e-86  4.9584727957490597e-61  8.1120277379131405e-62  1.9127810830840084e-104  -7.1506565129308046e-95  1.0799386739187343e-69  1.2532045418534261e-77  1.8538994163487050e-106  6.2509133156641085e-118  1.9726243820931230e-99  -6.6154642215145550e-126  2.3825486761937799e-71  1.3428995562958701e-59  -1.3451563628877118e-87  1.0474248921384995e-78  7.0559636332154174e-48  -1.2479562268817589e-94  -2.4961902404613787e-73  -2.3026427011574126e-68  -1.4051175093719029e-59  2.4099703700293116e-95  -3.1421560142980250e-104  4.6530703460078543e-98  3.6838116632460297e-87  4.6494172949835761e-61  1.4625054493621966e-127  1.2287729135066734e-127  1.1041662506277173e-119  1.0050874068565519e-89  -1.0720278262919019e-104  2.2683010602374061e-155  9.6583643880755730e-149  1.8912422125653110e-143  -3.1793013844511161e-137  -7.1651206460802404e-129  -9.0999082144591047e-119  -6.7334719612848881e-110  -4.4498539846122018e-99  1.1199387078197671e-90  -5.9413955204305944e-84  1.7684834534536102e-83  6.9306104685882081e-83  -7.5911936453221965e-86  1.6436336957046709e-90  9.1770267484328098e-95  2.1147769846937784e-98  -9.2488977014150957e-106  -1.6330481048539493e-114  -9.0246472965323557e-123  -7.7235087279233305e-132  -3.2032957268409491e-141  -1.5441816502933505e-151  -9.2381577606580312e-157  -2.4310314134463825e-157  5.2022134737549039e-161  7.8548627751634086e-164  3.6898456744661336e-159  -5.2360456775115594e-149  -3.2418448928797418e-143  -3.7130814485485695e-138  2.2698922157146064e-129  2.1278237764647138e-123  -7.9616630241223161e-124  -1.0949947543566419e-119  5.8749485182165185e-123  -1.7472663607694142e-127  -3.5075785817077480e-123  1.5931742970822234e-123  2.9282866783166098e-122  -4.3531654501402618e-123  1.7553869255766438e-126  7.1111149956170586e-123  -3.7589572545300605e-122  -1.0861637914620299e-118  1.6523677742716722e-114  6.6005777089267364e-113  -1.2941860108206401e-107  -2.5212798930732894e-99  4.3594610740310017e-96  2.1149267517759184e-99  3.2075873517793891e-103  4