<?xml version="1.0"?>
<VTKFile type="UnstructuredGrid"  version="0.1"  >
<UnstructuredGrid>
<Piece  NumberOfPoints="2868" NumberOfCells="5400">
<Points>
<DataArray  type="Float64"  NumberOfComponents="3"  format="ascii">0.534923 0.326073 0  0.510642 0.314196 0  0.466125 0.293082 0  0.436448 0.281205 0  0.409468 0.275927 0  0.368998 0.270648 0  0.35281 0.275927 0  0.381139 0.302319 0  0.405421 0.326073 0  0.410817 0.33531 0  0.408119 0.349826 0  0.400025 0.357744 0  0.375743 0.368301 0  0.329878 0.392055 0  0.297502 0.432963 0  0.282663 0.476511 0  0.285361 0.524018 0  0.298851 0.572845 0  0.317737 0.6045160000000001 0  0.337972 0.6361869999999999 0  0.360904 0.674457 0  0.368998 0.69953 0  0.359555 0.7219640000000001 0  0.360904 0.757594 0  0.370347 0.766831 0  0.381139 0.762872 0  0.390582 0.741758 0  0.404072 0.720644 0  0.424307 0.707448 0  0.447239 0.702169 0  0.480964 0.704808 0  0.479615 0.6889729999999999 0  0.468823 0.675776 0  0.447239 0.6691780000000001 0  0.428354 0.6691780000000001 0  0.410817 0.6639 0  0.404072 0.653343 0  0.395978 0.628269 0  0.387884 0.59132 0  0.389233 0.576804 0  0.397327 0.557009 0  0.410817 0.547772 0  0.424307 0.546452 0  0.437797 0.55305 0  0.44589 0.5662469999999999 0  0.441843 0.582082 0  0.439145 0.5979179999999999 0  0.449937 0.609795 0  0.468823 0.603196 0  0.479615 0.59 0  0.489058 0.570205 0  0.494454 0.546452 0  0.505246 0.522699 0  0.522783 0.509502 0  0.55246 0.494986 0  0.586185 0.484429 0  0.615863 0.48047 0  0.64554 0.473872 0  0.6671240000000001 0.461995 0  0.683312 0.451438 0  0.696802 0.435603 0  0.703547 0.417128 0  0.7116400000000001 0.393374 0  0.7183850000000001 0.37226 0  0.7251300000000001 0.364342 0  0.739969 0.353785 0  0.7453650000000001 0.344548 0  0.7453650000000001 0.327393 0  0.737271 0.318155 0  0.7183850000000001 0.316835 0  0.7008490000000001 0.319475 0  0.677916 0.318155 0  0.650936 0.316835 0  0.610467 0.318155 0  0.57944 0.324753 0  0.559205 0.328712 0  0.5389699999999999 0.326073 0  1 1 0  1 0 0  0 0 0  0 1 0  0.532238 0.32476 0  0.528748 0.323052 0  0.52421 0.320833 0  0.518311 0.317947 0  0.503447 0.310783 0  0.494093 0.306347 0  0.481933 0.30058 0  0.452151 0.28749 0  0.392327 0.273691 0  0.379141 0.271971 0  0.360474 0.283066 0  0.369797 0.291752 0  0.391424 0.31238 0  0.399335 0.32012 0  0.40958 0.341964 0  0.393939 0.36039 0  0.386028 0.36383 0  0.364248 0.374254 0  0.349304 0.381994 0  0.315801 0.409841 0  0.292986 0.551616 0  0.350934 0.657818 0  0.360127 0.737055 0  0.360566 0.748664 0  0.385245 0.753692 0  0.396447 0.732578 0  0.466301 0.703661 0  0.459439 0.672908 0  0.418442 0.666195 0  0.400553 0.642441 0  0.39255 0.612619 0  0.389913 0.60058 0  0.392752 0.568197 0  0.444131 0.573132 0  0.458149 0.606926 0  0.5005540000000001 0.533026 0  0.571522 0.489019 0  0.632637 0.476741 0  0.689177 0.444553 0  0.708121 0.403702 0  0.715453 0.38144 0  0.732406 0.359166 0  0.7453650000000001 0.337089 0  0.72906 0.317581 0  0.629879 0.317522 0  0.59293 0.321884 0  0.568003 0.326991 0  0.55202 0.327775 0  0.546493 0.327054 0  0.542241 0.326499 0  1 0.9 0  1 0.8 0  1 0.7 0  1 0.6 0  1 0.5 0  1 0.4 0  1 0.3 0  1 0.2 0  1 0.1 0  0.9 0 0  0.8 0 0  0.7 0 0  0.6 0 0  0.5 0 0  0.4 0 0  0.3 0 0  0.2 0 0  0.1 0 0  0.1 1 0  0.2 1 0  0.3 1 0  0.4 1 0  0.5 1 0  0.6 1 0  0.7 1 0  0.8 1 0  0.9 1 0  0 0.1 0  0 0.2 0  0 0.3 0  0 0.4 0  0 0.5 0  0 0.6 0  0 0.7 0  0 0.8 0  0 0.9 0  0.535686 0.5031910000000001 0  0.753987 0.733359 0  0.167145 0.741436 0  0.173378 0.257204 0  0.733497 0.159862 0  0.554096 0.15788 0  0.849187 0.479053 0  0.488793 0.838452 0  0.138507 0.5592 0  0.30686 0.154944 0  0.348904 0.890523 0  0.058006 0.065099 0  0.06984899999999999 0.937917 0  0.93633 0.939704 0  0.934625 0.053613 0  0.343397 0.333452 0  0.473272 0.639943 0  0.433266 0.638072 0  0.415174 0.58269 0  0.533435 0.545042 0  0.390848 0.340652 0  0.53655 0.320242 0  0.127966 0.393775 0  0.83861 0.850455 0  0.635242 0.8551299999999999 0  0.852158 0.633441 0  0.653427 0.626848 0  0.861226 0.24292 0  0.166128 0.12976 0  0.216875 0.8698709999999999 0  0.458305 0.11179 0  0.84446 0.101633 0  0.202024 0.642528 0  0.644825 0.115855 0  0.671342 0.218358 0  0.251354 0.286186 0  0.262388 0.75153 0  0.063044 0.751571 0  0.068189 0.242962 0  0.435781 0.9053949999999999 0  0.934144 0.451133 0  0.568393 0.237622 0  0.814984 0.395506 0  0.752951 0.517227 0  0.456254 0.780699 0  0.073352 0.531116 0  0.337731 0.206071 0  0.363213 0.960371 0  0.330742 0.363592 0  0.516613 0.55705 0  0.369057 0.332992 0  0.500926 0.617309 0  0.498004 0.665534 0  0.412142 0.61178 0  0.454233 0.6366039999999999 0  0.422782 0.567496 0  0.541193 0.5214800000000001 0  0.439761 0.65557 0  0.5163 0.533672 0  0.414775 0.64562 0  0.40073 0.576135 0  0.430362 0.5880339999999999 0  0.385432 0.351492 0  0.400298 0.335397 0  0.398325 0.348194 0  0.528702 0.314885 0  0.540814 0.322334 0  0.534477 0.322953 0  0.619095 0.743583 0  0.885162 0.737972 0  0.08076 0.668849 0  0.90734 0.36634 0  0.09468699999999999 0.868937 0  0.759838 0.912152 0  0.901518 0.540898 0  0.747285 0.607479 0  0.229182 0.071641 0  0.06915399999999999 0.450091 0  0.244775 0.203309 0  0.076534 0.331755 0  0.897847 0.167826 0  0.578909 0.911415 0  0.07713299999999999 0.146341 0  0.477215 0.203448 0  0.922631 0.869341 0  0.517415 0.074785 0  0.297026 0.827793 0  0.7832710000000001 0.246505 0  0.74519 0.061079 0  0.36033 0.069068 0  0.210313 0.475228 0  0.859426 0.928758 0  0.5745479999999999 0.609182 0  0.243069 0.383398 0  0.283099 0.934598 0  0.417416 0.843141 0  0.643942 0.553164 0  0.112687 0.079336 0  0.281357 0.658386 0  0.765043 0.436177 0  0.611361 0.198486 0  0.234496 0.58911 0  0.206479 0.702638 0  0.679608 0.155818 0  0.62682 0.259978 0  0.690538 0.264164 0  0.448938 0.956308 0  0.808154 0.328403 0  0.379583 0.91913 0  0.308083 0.297769 0  0.312358 0.730249 0  0.563101 0.278576 0  0.435597 0.746198 0  0.385475 0.225229 0  0.572248 0.518034 0  0.357864 0.35422 0  0.497647 0.641694 0  0.458101 0.655768 0  0.360474 0.310727 0  0.467038 0.620139 0  0.47798 0.659909 0  0.41102 0.628072 0  0.48324 0.609015 0  0.427544 0.617941 0  0.388633 0.328253 0  0.405336 0.599404 0  0.408351 0.565178 0  0.42395 0.600985 0  0.431562 0.576523 0  0.424905 0.6551979999999999 0  0.398064 0.58782 0  0.427739 0.557934 0  0.5192909999999999 0.303443 0  0.53142 0.320293 0  0.5449000000000001 0.323642 0  0.537166 0.323513 0  0.153974 0.920841 0  0.9181859999999999 0.67343 0  0.759946 0.820588 0  0.5375259999999999 0.783091 0  0.816532 0.545843 0  0.813991 0.178083 0  0.836774 0.702023 0  0.149815 0.318856 0  0.662287 0.923338 0  0.680146 0.791192 0  0.708961 0.663172 0  0.9372779999999999 0.287318 0  0.574622 0.6881660000000001 0  0.5894740000000001 0.076262 0  0.502822 0.926683 0  0.222269 0.811068 0  0.380457 0.164786 0  0.15321 0.684154 0  0.458063 0.051413 0  0.161702 0.056026 0  0.199351 0.198818 0  0.298946 0.09553200000000001 0  0.902465 0.795949 0  0.121139 0.791477 0  0.906269 0.112287 0  0.056109 0.822332 0  0.512172 0.13237 0  0.940964 0.741805 0  0.888887 0.408777 0  0.354543 0.825964 0  0.808736 0.068638 0  0.068507 0.394071 0  0.719105 0.563843 0  0.247287 0.149664 0  0.293062 0.237128 0  0.240524 0.434997 0  0.141255 0.623289 0  0.945202 0.160621 0  0.502914 0.247629 0  0.144669 0.480811 0  0.665025 0.060817 0  0.728047 0.224344 0  0.861995 0.313312 0  0.200068 0.534235 0  0.253262 0.965623 0  0.893804 0.49307 0  0.604391 0.572456 0  0.947088 0.345347 0  0.439372 0.227307 0  0.629847 0.159823 0  0.273405 0.880181 0  0.302744 0.776823 0  0.781502 0.295365 0  0.275342 0.349602 0  0.7283849999999999 0.472798 0  0.229136 0.246478 0  0.807794 0.480346 0  0.709476 0.112786 0  0.275506 0.694991 0  0.771674 0.394419 0  0.449715 0.861802 0  0.419159 0.799696 0  0.674851 0.503139 0  0.280443 0.61016 0  0.572443 0.192538 0  0.393113 0.87525 0  0.405555 0.948428 0  0.330942 0.934103 0  0.540509 0.597101 0  0.312763 0.6689310000000001 0  0.254368 0.540179 0  0.595265 0.25915 0  0.606679 0.234099 0  0.657131 0.279138 0  0.722458 0.279478 0  0.333 0.308056 0  0.351529 0.246142 0  0.455714 0.7257940000000001 0  0.585239 0.295143 0  0.340062 0.72492 0  0.545593 0.293773 0  0.555449 0.545426 0  0.414311 0.737314 0  0.590854 0.502323 0  0.350507 0.368444 0  0.484423 0.625665 0  0.483899 0.674542 0  0.378137 0.317274 0  0.446416 0.646404 0  0.373532 0.347654 0  0.446876 0.619769 0  0.466106 0.666068 0  0.437545 0.609254 0  0.434988 0.565726 0  0.41462 0.656829 0  0.418803 0.556961 0  0.398425 0.327446 0  0.517803 0.310421 0  0.549516 0.322918 0  0.57701 0.842889 0  0.8291269999999999 0.773906 0  0.643235 0.684732 0  0.134281 0.207734 0  0.865997 0.055966 0  0.680959 0.723345 0  0.165229 0.8415550000000001 0  0.54558 0.959672 0  0.783726 0.656439 0  0.913315 0.595533 0  0.699439 0.860667 0  0.785839 0.125076 0  0.551673 0.037713 0  0.9200970000000001 0.223214 0  0.206406 0.299726 0  0.087064 0.596401 0  0.935644 0.394252 0  0.964557 0.252582 0  0.230124 0.928346 0  0.120579 0.271764 0  0.8572149999999999 0.524082 0  0.7670979999999999 0.5551469999999999 0  0.936094 0.507131 0  0.804064 0.59585 0  0.700565 0.608273 0  0.429773 0.174231 0  0.117746 0.727333 0  0.5389620000000001 0.730231 0  0.862761 0.359173 0  0.821444 0.284046 0  0.193552 0.35818 0  0.234923 0.505555 0  0.193209 0.421217 0  0.220144 0.755896 0  0.594015 0.131642 0  0.283813 0.195855 0  0.517519 0.213961 0  0.553509 0.639116 0  0.280391 0.378018 0  0.852183 0.436817 0  0.746983 0.197173 0  0.821806 0.221318 0  0.449853 0.828453 0  0.883758 0.453926 0  0.183484 0.589542 0  0.348384 0.129314 0  0.255254 0.838525 0  0.504849 0.798516 0  0.320344 0.863432 0  0.611669 0.525425 0  0.265864 0.804962 0  0.72056 0.521442 0  0.613372 0.6101220000000001 0  0.481262 0.881068 0  0.655778 0.191988 0  0.701921 0.196918 0  0.5658260000000001 0.5731810000000001 0  0.46914 0.240927 0  0.343219 0.173284 0  0.888786 0.278502 0  0.244113 0.6750930000000001 0  0.739546 0.417914 0  0.784023 0.355942 0  0.326805 0.265549 0  0.248616 0.6
[...]
<PointData  Scalars="f_17"> 
<DataArray  type="Float64"  Name="f_17"  format="ascii">3.6857822258298276e-153  -8.3733452986053453e-124  6.2753470134168263e-86  -5.9319915717003808e-83  -7.1389106361938066e-82  3.3523767243513457e-98  -5.0205859456531913e-100  -7.2246776008731088e-127  -2.1579134671847838e-156  -5.9305192017726898e-158  1.8189969647276064e-165  2.5489301125846295e-164  -1.2633511592612372e-143  6.2317723120262967e-124  -2.8522526606249046e-120  6.3185549386543319e-127  -1.2931083192513169e-123  2.3209446721314372e-122  -9.9050550215358726e-123  1.2713635445405298e-124  -2.0817999063731828e-122  -1.4578108010753563e-122  4.8634338159660968e-115  -1.9573913195694107e-103  -1.7247847380450210e-95  -6.2177933300644416e-97  2.4893442130477703e-98  -2.2492974559121662e-88  -7.2040876150848800e-89  1.0364380379429345e-81  9.7095373910193235e-68  -1.1893956474607438e-77  6.6548288623709213e-79  4.9260019489898453e-87  6.4506262274220087e-96  9.7910619187752208e-116  2.5493132218105626e-107  1.7649390734603255e-105  2.5917637286464558e-127  3.0918469614598510e-131  2.9463372428951185e-132  1.5944706049934334e-132  4.4982553690569205e-142  1.4171199278339202e-141  7.2123712586793247e-138  6.6212809700522566e-116  3.5837415887679047e-105  4.1043749949031721e-96  1.7526105741939602e-82  8.8543019551560018e-80  5.5565948402933194e-82  -8.4535850503582602e-80  2.5695110841805283e-88  -9.0994611599633640e-81  2.0205361538556222e-72  5.3634020753618105e-72  1.4297357617915280e-72  4.4372206195981399e-68  2.2059976444268495e-69  7.4884154199878774e-67  -1.4730738447555912e-59  1.5853826615765462e-62  1.8382003365431675e-69  1.7013212859127073e-87  1.0404044256867260e-79  5.0966132287803177e-69  3.9333609721529979e-71  4.6596144661138981e-67  5.7669860008453630e-68  3.2353359998593581e-72  -8.5537548602493349e-72  4.6436420156514126e-76  -6.5286973614822125e-75  4.1704242657242676e-74  4.6400524867488940e-92  -1.1365924573219090e-113  2.2325538756026531e-142  6.4960562706044901e-05  6.3239155899988349e-05  -1.9656336637401367e-79  4.8811963872861592e-79  4.0664831982253945e-150  2.2842959138811884e-148  7.8896045679320818e-138  -2.8656119888973552e-134  -5.2688562420892647e-115  -7.4773910845330602e-104  5.5421779674544141e-96  5.2770339906945685e-83  3.3932970859202909e-91  1.2313567314554652e-90  -1.2169537100890777e-110  -2.5746604188577884e-118  -9.5059299568230808e-137  -2.7786573865743086e-146  -6.6478782153575333e-158  6.8303018683475171e-154  -1.7189326929366956e-146  -4.3636195242303282e-133  5.3425461134712716e-126  -2.8402415403409137e-119  -5.6459792114840668e-125  7.7198624004232140e-123  -1.1338147995343309e-113  -3.5351072653478032e-112  1.0698506114670423e-99  3.9079649607408196e-90  1.3962953690018399e-76  2.2625323885826826e-87  1.4627994717186048e-105  3.7107591693952699e-105  1.3647139037823874e-105  1.5080764292264717e-116  5.1889314721594990e-132  6.9301174445574917e-127  2.4035413949873625e-88  5.6953208437203875e-89  5.8875710073993527e-72  2.9437498285034422e-69  -1.3618797829315109e-59  4.0264015360186599e-68  9.3024920196862318e-78  1.3487151801027469e-69  1.3093537510140052e-69  -4.4630539726415945e-73  2.1601140728008994e-74  1.8219104533172959e-82  -8.3025708037878593e-103  9.1012365228715466e-121  2.0585908768893927e-130  8.4545194777938876e-141  1.0921981797716801e-04  1.3766146477179510e-04  1.0905702504166156e-04  1.2806661109015111e-04  9.8977423914829032e-05  1.0309350177121782e-04  8.0550788231173670e-05  8.9049777854498404e-05  1.1759320908514226e-04  7.2458858987111451e-10  -5.0043742656498528e-17  1.4696485010140976e-24  -4.6250390118279857e-32  -2.3922379967278928e-40  -4.9189615003584264e-48  -2.3439808496925642e-56  -7.5421945115147350e-64  -1.1495268615582849e-71  3.7668142100177782e-71  5.5445472183163945e-64  -9.9181400274574583e-56  6.0185432359903472e-47  -7.3164305921482423e-39  2.0255588609512179e-30  1.8517497056742428e-24  2.9822948959160049e-17  1.1631525961298006e-09  -1.0930221607968299e-81  -1.9600369251498927e-81  -4.6952805782307015e-87  3.2588112903762223e-94  -2.6674159040736170e-101  -1.8461548381840739e-101  2.2115422681306349e-94  4.4118480929516654e-88  3.3427393116886961e-82  -5.6297772922123169e-81  6.0664657398141192e-19  1.6516730301537930e-89  -5.3638326843541106e-80  7.2817053252014363e-29  1.0738793608618256e-46  4.1488237211793963e-20  1.2137093394877085e-44  -6.2528990956890368e-109  2.1231579573700871e-68  4.0008856382197757e-55  -7.3031811310154072e-79  1.5791452081457488e-76  4.8315426417537403e-08  4.7215047150617230e-08  -4.1797436663019576e-114  5.8424322744261883e-70  2.3015256603701111e-87  4.2956524561375192e-113  2.0169698624896483e-70  1.8140805734541218e-144  4.2739841245055266e-138  -1.6985629427037685e-93  2.9982913006321640e-13  1.4452180620999946e-29  6.7389967282145254e-13  -1.6169300393858093e-32  1.7817496470277558e-15  -1.4264343448744012e-69  3.0686399985849677e-72  -8.7183950072048495e-52  4.2778869354452263e-15  4.5609208794841320e-98  1.1477809865492817e-33  -2.2612151002124700e-44  -2.8429209666404997e-88  1.9135516453261652e-87  7.4258566415939521e-89  -3.8498745009186658e-81  2.9053252448344418e-43  1.2510812788274348e-07  -2.3728134411737921e-64  7.0538400712726456e-28  -2.9819602083518074e-34  1.1938521593346191e-60  1.9275989694487254e-107  -6.1442540596535505e-77  9.6352292731363583e-55  4.8469030708484334e-114  -2.0190121042902136e-70  -4.7396528703518707e-124  7.5772509815135233e-64  -6.0577254691627546e-61  1.0078540254685980e-103  1.5353340493371196e-78  1.2234887615841729e-122  -8.6217929597177899e-72  9.8419566985264425e-87  3.8884040212588383e-79  1.1898169913316807e-96  7.7991710701663474e-123  3.4874317092322424e-113  5.6339303411749472e-144  -1.1980743591295147e-146  4.2178091054599317e-154  3.5833632498785215e-127  8.8146148341771714e-131  5.5270266415140541e-149  3.5749057297118635e-30  5.8042208328255609e-13  -7.4805085992861937e-96  4.6377469585443700e-14  5.8430711913901657e-77  1.1942712510228530e-18  1.9709600739258102e-13  8.6797837333368740e-25  -2.5900875155881739e-63  -2.3107917083262031e-100  -3.3736751457901162e-75  5.5259778920955870e-89  1.1492519147430577e-13  6.7933469281979768e-31  -1.4694391604856445e-75  4.5629239700565173e-60  1.2119048019722440e-07  1.8530942410591155e-45  1.8996194377825243e-67  1.0808820407173285e-28  -7.6135487387738686e-25  -1.3967386782685970e-55  5.7841111257963381e-109  1.4260600033398200e-13  4.0002980920988779e-45  -3.1909256397413832e-101  1.3070731366398989e-61  4.1836467465030821e-56  7.2703294715746632e-47  -4.9507344796154284e-75  2.7438283662323137e-106  1.6060951559157797e-40  -1.0869017102261798e-48  -5.8897178124993856e-106  2.0124760413334372e-91  4.7426677151473539e-34  9.8108464595440550e-58  1.2213376994738416e-50  5.8032756170637873e-43  1.1856895085725291e-33  2.0821653557193888e-49  -1.1268216587369589e-98  1.3251651275766225e-96  3.4032947071107113e-81  8.4589263291814086e-73  -5.8357078512152634e-76  1.2097704324583116e-63  -5.4838951022985954e-123  8.8191048130371304e-61  1.9186656623199534e-77  -3.8335665147008254e-117  8.6122529398498307e-79  6.2518642986989038e-69  3.7159292754834784e-96  2.5000063787449921e-73  5.7242268495313283e-95  9.2825798563638988e-135  2.2881985364278113e-112  1.3359964431227165e-122  6.0209018227373179e-104  4.7516559225060129e-122  6.2016345425790515e-96  1.9614429349489411e-121  8.4943803661747811e-133  5.9009060015524195e-115  2.9885670724144188e-138  5.7734209541571810e-130  4.2052263595119163e-142  7.0718108635745465e-71  2.2455613202552872e-07  6.6664217447119562e-19  2.4213464844578868e-43  5.3062441871352640e-21  3.3655767921151690e-21  2.7701604180582759e-13  -7.9274997148386346e-87  9.2609983448751952e-25  2.3434352771021547e-24  5.1150120373432918e-24  1.6738599967357154e-08  4.0546542110483045e-43  -1.0673646346667249e-38  5.0675986567999140e-37  5.9195011677826878e-78  -7.2909501664191795e-64  6.7830387104226670e-96  -2.0592977935607075e-47  -3.0543510741399843e-69  -2.0091990895174041e-73  -2.9667979025192193e-61  3.4579619525319289e-08  2.0926774696413252e-83  1.3349252914993327e-08  7.2850523499261446e-83  1.4878681883166102e-51  1.5124076575769950e-07  8.7481749019698706e-14  -2.3959273615824628e-65  1.5443495104812504e-20  7.4664622672802140e-96  2.6964054621116861e-32  -2.3414911560978538e-67  -4.0728595199298003e-82  -7.6884349063092200e-109  3.9621583562115976e-102  9.7209609217834381e-08  -1.7286446020870564e-77  4.4539560154729020e-101  9.5898445974784460e-32  1.9952434972799727e-40  3.6468974993699240e-20  2.3438492564440098e-109  2.8179325737015767e-63  7.2780318573004391e-14  2.7122868196119162e-47  1.1130139244527094e-07  1.3760646298722959e-66  5.4270655425433094e-40  1.6017421660555977e-66  -4.9760754912405031e-82  2.0691277969207348e-39  1.7658707902193460e-102  1.4570578447694160e-41  1.3965831714774263e-80  4.1833536805132698e-27  1.4535790446209769e-27  2.2314549325509130e-100  5.1121256779933020e-42  2.8794951768184066e-49  -9.6269623384128693e-66  -1.9477694099821816e-50  6.4929691435411797e-114  1.2696230721668507e-53  4.8190550070743171e-50  1.1854800340809561e-48  1.4067197190755811e-55  8.6620434338916144e-54  9.0772746138830983e-113  -3.8441625345148581e-114  1.3750234646390311e-65  1.5362654607167104e-56  8.0046677112004271e-58  5.2101765280185842e-52  1.0302618574455540e-107  -1.3518148676094519e-86  -1.9627163841292158e-72  9.9966459033695057e-74  -9.7529271152161018e-105  4.3614710527037387e-97  6.7055822949802807e-62  5.8080873248672372e-81  1.1169066258211073e-63  2.1257231670564113e-124  8.3968295822640119e-71  -7.0775890672801410e-70  -5.8557229085158805e-127  4.1875254603931635e-86  -4.8961732603743042e-133  9.5819283945889995e-87  1.9858629224891869e-78  4.6191886959339560e-96  1.2400756196112654e-131  7.7456499259448620e-106  7.9491159211070001e-132  1.2655632993945017e-147  -1.0301679147005976e-123  1.9514916113235371e-119  2.9272112407320612e-35  2.2786785880157095e-14  4.9033097525554780e-30  -7.9089601566123717e-76  3.7401387595391601e-14  7.3734191325430893e-25  6.6230949782300333e-78  2.2260479857479949e-36  2.0295102161404281e-18  4.6719338391998277e-08  4.2008436720425155e-24  1.8168551221020733e-21  -1.9652387313322655e-39  1.2535555929276524e-08  5.5104756554130891e-87  -1.1918573120281452e-103  2.0854822793396942e-08  1.1002990068175122e-07  1.0467883325010047e-67  -1.0684064612726724e-82  1.3563205390935286e-19  3.3438438121316984e-26  1.8299244440875969e-08  3.7743269884523291e-19  3.8025346769480855e-31  -7.0981550070144785e-60  -5.3489743191890800e-91  -1.2237119703932641e-44  6.2235803396798908e-20  9.5966324716362200e-29  1.1031968243542408e-93  -1.7293918024273186e-117  6.8535931832503867e-101  8.2521438731319288e-85  5.8184881171929673e-40  2.3933968098154200e-74  -1.4846347370156716e-60  -3.3547187281336022e-45  1.1880712259345369e-110  3.8732112037155196e-20  1.7144810082775612e-33  3.2701492897806504e-21  1.6583325910239927e-51  3.7768385017929414e-14  7.9836225720675676e-105  -1.3140801415871292e-63  2.5986486041248021e-72  1.7060140428330418e-48  2.6894938994169125e-61  3.4759270291518995e-55  5.7748820887991668e-74  -1.7373831009793599e-40  -1.0290671680680434e-39  6.9509086142657854e-43  7.0957919311975570e-42  -9.7291076903515190e-37  -3.8911884029477291e-53  -1.2516822804547594e-67  -1.1869560402720535e-69  1.2283208741948081e-14  -1.0531596330250003e-98  9.7398072898116076e-49  -1.6537865444410963e-45  -1.5939810033235894e-92  -5.1011122589236519e-106  3.3222164446219964e-34  5.3505222334984145e-34  1.3670672013105652e-104  -5.8128452200436989e-78  -3.7289591557959666e-77  1.1452404788790768e-63  -5.8636623820423586e-115  1.7358993656188366e-81  -4.5227951535127029e-37  -5.1192696973066663e-50  9.6969538712957937e-57  4.9374690540393866e-105  2.1061475876662098e-51  1.5097145298312670e-50  9.6615272091911863e-118  8.3489872440665297e-115  1.6268107876368610e-65  3.6744507247226009e-43  -1.9667520069935927e-81  9.2916803949674763e-85  2.0079465127784350e-90  7.6371869713161559e-74  5.0331599315275691e-59  2.4645789558432659e-56  3.6574826522119055e-64  2.7214012631457507e-64  -3.7512823457788334e-59  5.3702368592313012e-97  7.8479525699236895e-48  -7.6098774734894742e-89  5.5789436333223587e-50  -3.1943574973028063e-95  -1.0437587395589393e-56  -1.4490646782946233e-78  6.5197441611179537e-83  -3.1653576456742631e-71  7.7393580987098525e-90  7.9616156435535243e-55  -5.2413420441342056e-80  -8.3771086830159357e-68  -3.6902901133158889e-109  -6.0654304041096297e-104  -1.9739363286365338e-102  -1.2550042967578646e-83  -2.4044155458169613e-133  1.4721491466116856e-114  9.6658725573720970e-135  -6.1593369610049240e-127  1.4947975617113433e-07  2.9701668857255117e-30  2.9219449164908468e-14  1.5624800184857443e-37  4.9302755682652658e-15  1.4151323953304423e-83  1.2892784157281232e-38  4.5327469204473201e-37  1.4930379242770330e-41  5.2278581503494702e-45  4.5226377897352968e-26  3.9594763824206266e-50  1.6396818269133291e-37  -2.1482526821869274e-94  -5.5706634235814484e-58  1.6996501727815210e-27  1.1244919200812698e-57  1.9709104215626839e-46  2.9140701867414781e-36  -3.4576341644643589e-52  8.4365601419550524e-14  -3.4775419582777529e-67  2.3455882109111874e-53  6.6633199437457212e-61  -9.9686741093070592e-118  3.2885819104904677e-27  1.1194400858225629e-26  -2.9823613034641271e-92  -5.6321778834637053e-31  1.7622420517487968e-20  9.5826589355859178e-42  9.8841923763704673e-110  4.1798948203582139e-34  8.0385786901108483e-60  5.7677196046943632e-34  1.5666699593151008e-70  1.1436634914444187e-26  -7.3168878332824698e-55  2.5119602544803177e-21  1.7977942803428277e-44  -8.5237025890272667e-76  1.7369735716268748e-80  -1.3797394854922696e-82  1.4986022538232696e-68  -2.3947955957781780e-79  -1.0359966989408978e-88  -6.1437091149903764e-68  4.8598933121864515e-34  2.2613479720599859e-34  -1.5248719688048144e-74  1.7107897522947535e-89  1.6510582972084322e-42  7.2340600931752061e-54  -2.9644553759340152e-52  -1.7188187742149251e-111  5.3732878091994182e-27  4.1790257167643239e-81  -2.1926314230323176e-61  5.6924033466563565e-56  1.9643222472970128e-42  1.6734945331260922e-58  -4.6498487347356699e-58  1.2086209695940009e-74  2.6430502303798541e-113  2.9007201209757406e-42  1.6787515705988417e-35  3.8008444353116230e-66  1.4628394915533572e-64  -1.0540594095020232e-109  1.7263241547527234e-52  1.7180562195858635e-48  -8.9932706490339702e-59  -4.4556008193507858e-113  -3.6286176725031941e-52  -9.7328124652883564e-86  8.1993892259076044e-67  3.8001267233602515e-46  -2.2610965518524948e-66  -2.1599698043680642e-43  5.1130043769861628e-74  6.0906183514854741e-59  -6.5000468937306231e-101  7.5701671135386418e-86  1.3660658679752790e-76  2.5087993141424510e-72  1.2436738101815278e-92  -1.2434250708421539e-65  7.9537405723748776e-64  -1.0286201228077356e-78  6.9253236864585157e-89  -9.2826031058172012e-68  3.9037755014894469e-81  1.1878278335611850e-57  -3.0071965057423061e-93  3.0606015569510287e-73  2.1833168675616112e-68  -1.0815610567024104e-56  1.0660012023024370e-107  1.1130266592548845e-80  2.7169018192514765e-63  -1.0824416239293931e-92  1.4909925498142358e-88  4.4449890801268115e-103  -1.0751228428641426e-112  -4.9161579758113481e-115  5.4799214873360138e-110  -1.9954632467577874e-53  2.2722911971197141e-16  7.9737652163336382e-37  9.6982599328954343e-40  8.8929451383929219e-29  -4.7011091583829083e-123  2.5979551768703293e-38  -5.1743445969185295e-71  -1.1361669856411382e-51  3.6900232689313483e-27  1.8995996967164231e-33  7.3881641534031532e-44  1.0899401548810313e-26  4.8500869914036684e-23  2.4996376662041615e-119  2.7156462462970141e-56  -7.9886950732924354e-60  -1.2885053933338156e-67  -1.2544032299480783e-58  -4.1594717754281720e-52  -4.6366179913113569e-72  2.2858116809746467e-41  2.5967651978127744e-50  -5.1520948945223935e-59  2.3277083564959734e-69  8.0978824205742646e-53  -2.5060894327164338e-84  -3.7978282658888987e-104  4.8820221234981991e-76  1.3588875960156189e-61  2.2795377198668304e-36  4.9878184984449265e-76  -6.3463630485260428e-37  2.0718352813259307e-27  1.9409563993168929e-63  -6.1205465905709013e-75  4.5061530064820793e-121  2.9500014095524392e-50  5.0234739786892263e-42  -2.9988417802937353e-69  2.7288552438066466e-99  2.4860575694982131e-49  2.5240884425713570e-65  -1.1425387701446466e-51  2.0702988670221555e-62  -4.3349977047056378e-64  -3.9746102536327032e-70  -1.2375472446359699e-95  1.0827916943723567e-83  -3.7794874498589854e-51  4.7226412038570897e-41  1.3375461358535919e-42  5.0933346945883980e-81  1.5263860189284257e-65  -5.5368814956472499e-63  1.0496057350577775e-77  1.2762604346348230e-49  -1.4811433407028964e-91  -7.8095670416450636e-99  1.2395965326733846e-80  3.6273949974830526e-58  7.6454093598606230e-74  3.2719728491447333e-65  -3.1941728220321078e-88  1.6744318078426574e-59  8.9842057235825175e-101  1.9862713880078633e-93  2.1170477458971272e-50  1.0683839565369751e-67  6.6940489240918190e-71  2.7235551598895970e-54  -4.1398366588892475e-46  -1.6925659430202726e-54  3.2821375569297904e-89  2.9391874081352894e-94  6.1686176429228274e-65  1.2731824038489718e-82  6.5036695174773470e-100  9.9937126047516390e-98  3.9010884415371776e-109  1.1027748445833843e-116  1.0612754679107139e-78  3.9788505938167389e-36  -5.3395260551512019e-47  -1.1254054531385441e-44  3.9182503750986173e-51  1.9298433523299428e-58  1.2305634895287931e-51  -1.6951030082440010e-91  -1.1022730787153014e-59  -5.9533854695405516e-71  1.9081876804015791e-79  1.3867943697586599e-43  -1.6306928769645805e-71  2.2149758884346102e-51  1.6734358192224047e-35  -2.4502048121878185e-86  -5.5310073430613279e-75  6.6323147691794714e-61  1.9113122209179412e-85  3.0579148970193492e-73  -1.1253362257870550e-59  5.7758642951787025e-52  -3.5927665959976052e-68  -7.6259324709449121e-53  2.5377802893430097e-58  -1.9819800908665218e-89  1.2697362688574259e-95  -2.9895086754813459e-86  4.9263270917792354e-61  8.0716003583097677e-62  1.7449099873781577e-104  -6.1697400884439407e-95  1.0445539510472729e-69  1.1577544656558338e-77  1.6120966478713459e-106  5.3246431466696013e-118  1.7304751065033246e-99  -7.2398374984486055e-126  2.1979388869598798e-71  1.3506208465800451e-59  -1.1792550459758246e-87  9.5471338367348411e-79  7.0546593151735822e-48  -1.0954776854703296e-94  -2.3227250487894441e-73  -2.3099592443096226e-68  -1.4012131508585342e-59  2.2225644128645338e-95  -2.8513434402061076e-104  3.8303438142172289e-98  3.3548299074815496e-87  4.5846276912745823e-61  1.2132813843821271e-127  1.0196372994847160e-127  9.3043411488268512e-120  8.9397488737540421e-90  -9.3892992445061574e-105  1.8829409292263113e-155  1.0361381193410884e-148  2.4421554158937539e-143  -2.1757375126665879e-137  -5.3569571916950041e-129  -7.3322303424507599e-119  -5.4920518660719057e-110  -3.8452492643704673e-99  1.0047968494951301e-90  -5.5341176384076981e-84  1.5700471177599131e-83  -4.2308692855270303e-83  -5.3346454932771159e-86  1.8972840518236036e-90  8.2414404263930995e-95  2.0195063178568133e-98  -1.7947814769719048e-105  -2.5541136906247052e-114  -1.7669066152463323e-122  -7.9764340186979158e-132  -2.2841333751867515e-141  -1.3184280210317205e-151  -1.4903485615690608e-156  -9.5576443309892290e-158  -4.4677704855303443e-162  2.4602811578492860e-164  2.4390310916897806e-159  2.3154700444927445e-149  -5.7160531287769103e-144  -1.5781699932574314e-138  -1.6210601147771263e-129  5.5520790944062040e-124  -7.4990438974462532e-124  -3.0541855122807003e-119  5.8346612483951658e-124  -1.0872349856490806e-127  -2.1300245370403666e-123  1.2225332498626870e-123  1.9139935650038502e-122  -3.2825874611435017e-123  1.3672156607524143e-126  4.7978643644244273e-123  -3.1165516819184771e-122  -8.3296134654593655e-119  1.4564559336640356e-114  5.6871361549356206e-113  -1.1123626378522933e-107  -2.2246725646860619e-99  3.8357999555835201e-96  2.0383837967906561e-99  2.5697387896820991e-103  