<?xml version="1.0"?>
<VTKFile type="UnstructuredGrid"  version="0.1"  >
<UnstructuredGrid>
<Piece  NumberOfPoints="2868" NumberOfCells="5400">
<Points>
<DataArray  type="Float64"  NumberOfComponents="3"  format="ascii">0.534923 0.326073 0  0.510642 0.314196 0  0.466125 0.293082 0  0.436448 0.281205 0  0.409468 0.275927 0  0.368998 0.270648 0  0.35281 0.275927 0  0.381139 0.302319 0  0.405421 0.326073 0  0.410817 0.33531 0  0.408119 0.349826 0  0.400025 0.357744 0  0.375743 0.368301 0  0.329878 0.392055 0  0.297502 0.432963 0  0.282663 0.476511 0  0.285361 0.524018 0  0.298851 0.572845 0  0.317737 0.6045160000000001 0  0.337972 0.6361869999999999 0  0.360904 0.674457 0  0.368998 0.69953 0  0.359555 0.7219640000000001 0  0.360904 0.757594 0  0.370347 0.766831 0  0.381139 0.762872 0  0.390582 0.741758 0  0.404072 0.720644 0  0.424307 0.707448 0  0.447239 0.702169 0  0.480964 0.704808 0  0.479615 0.6889729999999999 0  0.468823 0.675776 0  0.447239 0.6691780000000001 0  0.428354 0.6691780000000001 0  0.410817 0.6639 0  0.404072 0.653343 0  0.395978 0.628269 0  0.387884 0.59132 0  0.389233 0.576804 0  0.397327 0.557009 0  0.410817 0.547772 0  0.424307 0.546452 0  0.437797 0.55305 0  0.44589 0.5662469999999999 0  0.441843 0.582082 0  0.439145 0.5979179999999999 0  0.449937 0.609795 0  0.468823 0.603196 0  0.479615 0.59 0  0.489058 0.570205 0  0.494454 0.546452 0  0.505246 0.522699 0  0.522783 0.509502 0  0.55246 0.494986 0  0.586185 0.484429 0  0.615863 0.48047 0  0.64554 0.473872 0  0.6671240000000001 0.461995 0  0.683312 0.451438 0  0.696802 0.435603 0  0.703547 0.417128 0  0.7116400000000001 0.393374 0  0.7183850000000001 0.37226 0  0.7251300000000001 0.364342 0  0.739969 0.353785 0  0.7453650000000001 0.344548 0  0.7453650000000001 0.327393 0  0.737271 0.318155 0  0.7183850000000001 0.316835 0  0.7008490000000001 0.319475 0  0.677916 0.318155 0  0.650936 0.316835 0  0.610467 0.318155 0  0.57944 0.324753 0  0.559205 0.328712 0  0.5389699999999999 0.326073 0  1 1 0  1 0 0  0 0 0  0 1 0  0.532238 0.32476 0  0.528748 0.323052 0  0.52421 0.320833 0  0.518311 0.317947 0  0.503447 0.310783 0  0.494093 0.306347 0  0.481933 0.30058 0  0.452151 0.28749 0  0.392327 0.273691 0  0.379141 0.271971 0  0.360474 0.283066 0  0.369797 0.291752 0  0.391424 0.31238 0  0.399335 0.32012 0  0.40958 0.341964 0  0.393939 0.36039 0  0.386028 0.36383 0  0.364248 0.374254 0  0.349304 0.381994 0  0.315801 0.409841 0  0.292986 0.551616 0  0.350934 0.657818 0  0.360127 0.737055 0  0.360566 0.748664 0  0.385245 0.753692 0  0.396447 0.732578 0  0.466301 0.703661 0  0.459439 0.672908 0  0.418442 0.666195 0  0.400553 0.642441 0  0.39255 0.612619 0  0.389913 0.60058 0  0.392752 0.568197 0  0.444131 0.573132 0  0.458149 0.606926 0  0.5005540000000001 0.533026 0  0.571522 0.489019 0  0.632637 0.476741 0  0.689177 0.444553 0  0.708121 0.403702 0  0.715453 0.38144 0  0.732406 0.359166 0  0.7453650000000001 0.337089 0  0.72906 0.317581 0  0.629879 0.317522 0  0.59293 0.321884 0  0.568003 0.326991 0  0.55202 0.327775 0  0.546493 0.327054 0  0.542241 0.326499 0  1 0.9 0  1 0.8 0  1 0.7 0  1 0.6 0  1 0.5 0  1 0.4 0  1 0.3 0  1 0.2 0  1 0.1 0  0.9 0 0  0.8 0 0  0.7 0 0  0.6 0 0  0.5 0 0  0.4 0 0  0.3 0 0  0.2 0 0  0.1 0 0  0.1 1 0  0.2 1 0  0.3 1 0  0.4 1 0  0.5 1 0  0.6 1 0  0.7 1 0  0.8 1 0  0.9 1 0  0 0.1 0  0 0.2 0  0 0.3 0  0 0.4 0  0 0.5 0  0 0.6 0  0 0.7 0  0 0.8 0  0 0.9 0  0.535686 0.5031910000000001 0  0.753987 0.733359 0  0.167145 0.741436 0  0.173378 0.257204 0  0.733497 0.159862 0  0.554096 0.15788 0  0.849187 0.479053 0  0.488793 0.838452 0  0.138507 0.5592 0  0.30686 0.154944 0  0.348904 0.890523 0  0.058006 0.065099 0  0.06984899999999999 0.937917 0  0.93633 0.939704 0  0.934625 0.053613 0  0.343397 0.333452 0  0.473272 0.639943 0  0.433266 0.638072 0  0.415174 0.58269 0  0.533435 0.545042 0  0.390848 0.340652 0  0.53655 0.320242 0  0.127966 0.393775 0  0.83861 0.850455 0  0.635242 0.8551299999999999 0  0.852158 0.633441 0  0.653427 0.626848 0  0.861226 0.24292 0  0.166128 0.12976 0  0.216875 0.8698709999999999 0  0.458305 0.11179 0  0.84446 0.101633 0  0.202024 0.642528 0  0.644825 0.115855 0  0.671342 0.218358 0  0.251354 0.286186 0  0.262388 0.75153 0  0.063044 0.751571 0  0.068189 0.242962 0  0.435781 0.9053949999999999 0  0.934144 0.451133 0  0.568393 0.237622 0  0.814984 0.395506 0  0.752951 0.517227 0  0.456254 0.780699 0  0.073352 0.531116 0  0.337731 0.206071 0  0.363213 0.960371 0  0.330742 0.363592 0  0.516613 0.55705 0  0.369057 0.332992 0  0.500926 0.617309 0  0.498004 0.665534 0  0.412142 0.61178 0  0.454233 0.6366039999999999 0  0.422782 0.567496 0  0.541193 0.5214800000000001 0  0.439761 0.65557 0  0.5163 0.533672 0  0.414775 0.64562 0  0.40073 0.576135 0  0.430362 0.5880339999999999 0  0.385432 0.351492 0  0.400298 0.335397 0  0.398325 0.348194 0  0.528702 0.314885 0  0.540814 0.322334 0  0.534477 0.322953 0  0.619095 0.743583 0  0.885162 0.737972 0  0.08076 0.668849 0  0.90734 0.36634 0  0.09468699999999999 0.868937 0  0.759838 0.912152 0  0.901518 0.540898 0  0.747285 0.607479 0  0.229182 0.071641 0  0.06915399999999999 0.450091 0  0.244775 0.203309 0  0.076534 0.331755 0  0.897847 0.167826 0  0.578909 0.911415 0  0.07713299999999999 0.146341 0  0.477215 0.203448 0  0.922631 0.869341 0  0.517415 0.074785 0  0.297026 0.827793 0  0.7832710000000001 0.246505 0  0.74519 0.061079 0  0.36033 0.069068 0  0.210313 0.475228 0  0.859426 0.928758 0  0.5745479999999999 0.609182 0  0.243069 0.383398 0  0.283099 0.934598 0  0.417416 0.843141 0  0.643942 0.553164 0  0.112687 0.079336 0  0.281357 0.658386 0  0.765043 0.436177 0  0.611361 0.198486 0  0.234496 0.58911 0  0.206479 0.702638 0  0.679608 0.155818 0  0.62682 0.259978 0  0.690538 0.264164 0  0.448938 0.956308 0  0.808154 0.328403 0  0.379583 0.91913 0  0.308083 0.297769 0  0.312358 0.730249 0  0.563101 0.278576 0  0.435597 0.746198 0  0.385475 0.225229 0  0.572248 0.518034 0  0.357864 0.35422 0  0.497647 0.641694 0  0.458101 0.655768 0  0.360474 0.310727 0  0.467038 0.620139 0  0.47798 0.659909 0  0.41102 0.628072 0  0.48324 0.609015 0  0.427544 0.617941 0  0.388633 0.328253 0  0.405336 0.599404 0  0.408351 0.565178 0  0.42395 0.600985 0  0.431562 0.576523 0  0.424905 0.6551979999999999 0  0.398064 0.58782 0  0.427739 0.557934 0  0.5192909999999999 0.303443 0  0.53142 0.320293 0  0.5449000000000001 0.323642 0  0.537166 0.323513 0  0.153974 0.920841 0  0.9181859999999999 0.67343 0  0.759946 0.820588 0  0.5375259999999999 0.783091 0  0.816532 0.545843 0  0.813991 0.178083 0  0.836774 0.702023 0  0.149815 0.318856 0  0.662287 0.923338 0  0.680146 0.791192 0  0.708961 0.663172 0  0.9372779999999999 0.287318 0  0.574622 0.6881660000000001 0  0.5894740000000001 0.076262 0  0.502822 0.926683 0  0.222269 0.811068 0  0.380457 0.164786 0  0.15321 0.684154 0  0.458063 0.051413 0  0.161702 0.056026 0  0.199351 0.198818 0  0.298946 0.09553200000000001 0  0.902465 0.795949 0  0.121139 0.791477 0  0.906269 0.112287 0  0.056109 0.822332 0  0.512172 0.13237 0  0.940964 0.741805 0  0.888887 0.408777 0  0.354543 0.825964 0  0.808736 0.068638 0  0.068507 0.394071 0  0.719105 0.563843 0  0.247287 0.149664 0  0.293062 0.237128 0  0.240524 0.434997 0  0.141255 0.623289 0  0.945202 0.160621 0  0.502914 0.247629 0  0.144669 0.480811 0  0.665025 0.060817 0  0.728047 0.224344 0  0.861995 0.313312 0  0.200068 0.534235 0  0.253262 0.965623 0  0.893804 0.49307 0  0.604391 0.572456 0  0.947088 0.345347 0  0.439372 0.227307 0  0.629847 0.159823 0  0.273405 0.880181 0  0.302744 0.776823 0  0.781502 0.295365 0  0.275342 0.349602 0  0.7283849999999999 0.472798 0  0.229136 0.246478 0  0.807794 0.480346 0  0.709476 0.112786 0  0.275506 0.694991 0  0.771674 0.394419 0  0.449715 0.861802 0  0.419159 0.799696 0  0.674851 0.503139 0  0.280443 0.61016 0  0.572443 0.192538 0  0.393113 0.87525 0  0.405555 0.948428 0  0.330942 0.934103 0  0.540509 0.597101 0  0.312763 0.6689310000000001 0  0.254368 0.540179 0  0.595265 0.25915 0  0.606679 0.234099 0  0.657131 0.279138 0  0.722458 0.279478 0  0.333 0.308056 0  0.351529 0.246142 0  0.455714 0.7257940000000001 0  0.585239 0.295143 0  0.340062 0.72492 0  0.545593 0.293773 0  0.555449 0.545426 0  0.414311 0.737314 0  0.590854 0.502323 0  0.350507 0.368444 0  0.484423 0.625665 0  0.483899 0.674542 0  0.378137 0.317274 0  0.446416 0.646404 0  0.373532 0.347654 0  0.446876 0.619769 0  0.466106 0.666068 0  0.437545 0.609254 0  0.434988 0.565726 0  0.41462 0.656829 0  0.418803 0.556961 0  0.398425 0.327446 0  0.517803 0.310421 0  0.549516 0.322918 0  0.57701 0.842889 0  0.8291269999999999 0.773906 0  0.643235 0.684732 0  0.134281 0.207734 0  0.865997 0.055966 0  0.680959 0.723345 0  0.165229 0.8415550000000001 0  0.54558 0.959672 0  0.783726 0.656439 0  0.913315 0.595533 0  0.699439 0.860667 0  0.785839 0.125076 0  0.551673 0.037713 0  0.9200970000000001 0.223214 0  0.206406 0.299726 0  0.087064 0.596401 0  0.935644 0.394252 0  0.964557 0.252582 0  0.230124 0.928346 0  0.120579 0.271764 0  0.8572149999999999 0.524082 0  0.7670979999999999 0.5551469999999999 0  0.936094 0.507131 0  0.804064 0.59585 0  0.700565 0.608273 0  0.429773 0.174231 0  0.117746 0.727333 0  0.5389620000000001 0.730231 0  0.862761 0.359173 0  0.821444 0.284046 0  0.193552 0.35818 0  0.234923 0.505555 0  0.193209 0.421217 0  0.220144 0.755896 0  0.594015 0.131642 0  0.283813 0.195855 0  0.517519 0.213961 0  0.553509 0.639116 0  0.280391 0.378018 0  0.852183 0.436817 0  0.746983 0.197173 0  0.821806 0.221318 0  0.449853 0.828453 0  0.883758 0.453926 0  0.183484 0.589542 0  0.348384 0.129314 0  0.255254 0.838525 0  0.504849 0.798516 0  0.320344 0.863432 0  0.611669 0.525425 0  0.265864 0.804962 0  0.72056 0.521442 0  0.613372 0.6101220000000001 0  0.481262 0.881068 0  0.655778 0.191988 0  0.701921 0.196918 0  0.5658260000000001 0.5731810000000001 0  0.46914 0.240927 0  0.343219 0.173284 0  0.888786 0.278502 0  0.244113 0.6750930000000001 0  0.739546 0.417914 0  0.784023 0.355942 0  0.326805 0.265549 0  0.248616 0.6
[...]
<PointData  Scalars="f_17"> 
<DataArray  type="Float64"  Name="f_17"  format="ascii">1.1551201023901273e-152  -2.3975752310595320e-123  -7.1191662751423904e-87  -8.1510605104687731e-83  -5.7228756951503868e-82  2.3068416309580114e-98  6.4265390184005154e-100  -1.3682212005602927e-127  -3.3059811477288903e-155  -2.1335011530180744e-156  1.2813787677347493e-163  1.5234166573511895e-162  2.6708525086780738e-142  8.4205958752049234e-123  1.3589734957387218e-118  2.8154328667519922e-126  -6.3903969945598925e-123  6.1680263375864438e-122  1.9148805248950598e-122  1.9708304793325190e-124  -2.7220396693934150e-122  -3.4322887434133010e-122  3.0888253701638799e-115  -3.1975006353666724e-103  -2.4287489726066732e-95  -6.8230854267484823e-97  5.3961187867623014e-98  -2.9325943394519703e-88  -1.1385489170201677e-88  1.3147739661886025e-81  9.7037398962683614e-68  -1.5015200219163689e-77  2.6342163999731650e-79  5.9721779646035421e-87  8.8886088389585446e-96  1.7832892820764728e-115  5.9575514280619213e-107  3.6186118326808664e-105  9.7758098948506809e-127  1.4273895007167240e-130  1.3397064814327414e-131  7.6380399253349040e-132  4.5316933328855716e-141  1.1438434409342028e-140  4.0382547032138827e-137  1.8313654503538865e-115  7.6303214335353349e-105  7.4897397814550121e-96  3.1079837387827252e-82  1.3933498575383641e-79  1.1369391989453760e-81  -9.2871632195244583e-80  3.9232208814866044e-88  1.0089007263316388e-80  6.1907567955274416e-72  9.2291984363269340e-72  2.3995131671794067e-72  1.1674978366344198e-67  -1.1910606905706510e-69  7.8504423360601518e-67  -1.4744448889946342e-59  1.4095383066178669e-62  2.1636255814942852e-69  2.1601335156485297e-87  1.1677700847180655e-79  5.2857917984181522e-69  4.1837030568226673e-71  4.4810092116627374e-67  5.8068549886347607e-68  3.0236477356091654e-72  -8.3806478684471561e-72  2.2335736028332702e-76  -6.7552324785476576e-75  4.5936191708332020e-74  8.4978513014458239e-92  9.6165048934616175e-113  5.8131611680392390e-142  6.4960562706044901e-05  6.3239155899988349e-05  -4.1191298506820170e-79  9.5934923863522839e-79  5.5296162560178110e-150  -1.8398083898855944e-148  -3.1457718636265879e-137  -1.1184513409729913e-133  -1.2178922486138684e-114  -1.3826527710393819e-103  5.5770165552412131e-96  6.8567670655430045e-83  4.2735499489767479e-90  1.6280828315068944e-90  2.0469224202674617e-110  3.9138085385642728e-119  -6.6144673124463714e-137  -2.2184950280350519e-145  -2.6096841965321953e-156  1.5412052282754510e-152  2.0367557422603432e-143  2.7816351686503085e-132  1.9056065727332849e-123  3.0915478064268425e-120  -6.6252624472899105e-123  1.9314264596690407e-122  -2.1915674804073494e-113  -5.5721773254089439e-112  1.6573788592919588e-99  7.5790867961688645e-90  1.1629871218605372e-76  2.4984540234803071e-87  2.2711374939981651e-105  7.8754971721536608e-105  2.8690305396293792e-105  4.2960845300654669e-116  2.4835864029789040e-131  2.6222361707404295e-126  4.2645459312206751e-88  2.8727813428499604e-89  1.1257833644792684e-71  5.6149793119384603e-68  -1.2931601581609454e-59  4.5271135537448009e-68  1.1112964491502434e-77  1.4102088132457229e-69  1.3277111067124418e-69  -4.0876697592936582e-73  2.6220801502905837e-74  2.2258426205866766e-82  2.0166225425893057e-101  2.2080685335164740e-120  5.0219434868516956e-130  2.2936896930203062e-140  1.0921981797716801e-04  1.3766146477179510e-04  1.0905702504166156e-04  1.2806661109015111e-04  9.8977423914829032e-05  1.0309350177121782e-04  8.0550788231173670e-05  8.9049777854498404e-05  1.1759320908514226e-04  7.2458858987111451e-10  -5.0043742656467528e-17  1.4696485441274843e-24  -4.6247620125061927e-32  -2.3799588308989541e-40  -4.9506201366479017e-48  -3.0838638882503654e-56  -1.0640301078681069e-63  -1.9324926148660469e-71  5.9247450146524218e-71  7.7856562003022763e-64  -1.5779851815850292e-55  6.5007430074565700e-47  -7.2665556713396337e-39  2.0258202710280818e-30  1.8517521848413078e-24  2.9822948959375051e-17  1.1631525961298006e-09  -2.1734271716302983e-81  -3.8669633159422995e-81  -1.1367893827827605e-86  6.2751618367301606e-94  -7.0430707423929340e-101  -5.0267964047424664e-101  6.7311728072873951e-94  1.0422461831643602e-87  6.9117490177164585e-82  2.2179646269051140e-80  6.0664657399846680e-19  2.5359598710163689e-89  -9.7890270652736837e-80  7.2817142976232206e-29  1.0758084100270371e-46  4.1488237211920653e-20  1.2201633015300923e-44  -1.8485488137105252e-108  2.7997770457744649e-68  4.1131202890197055e-55  -1.5041508758831222e-78  2.8486694158981595e-76  4.8315426417537403e-08  4.7215047150617230e-08  6.5426539066832658e-115  7.1179153214350614e-70  3.5752953542639563e-87  1.0810299885763994e-112  1.5175499725750363e-70  -7.9446172150916733e-144  1.0522109476087520e-137  -4.5973385525743423e-93  2.9982913006322165e-13  1.4452317840978867e-29  6.7389967282145446e-13  -1.6165508916618355e-32  1.7817496470277605e-15  -2.1982189523239339e-69  3.6405021806433750e-72  -1.5244941784137300e-51  4.2778869354452547e-15  7.8758873195780775e-98  1.1477931608071835e-33  -2.2568079890218731e-44  -6.0373557098607703e-88  2.7008461152849887e-87  1.7901636219958534e-88  -7.6878935445315113e-81  2.9128593292033558e-43  1.2510812788274348e-07  -6.0532162243999477e-65  7.0538401093165590e-28  -2.9819051505948519e-34  1.2787707279911857e-60  6.6025841780383096e-108  -4.7744261448988260e-77  8.8570574362184827e-55  1.7089348861278323e-113  -1.9677446747174835e-70  -8.7812376723367644e-124  8.5167145975777872e-64  -6.3851074391407603e-61  2.0852094533950511e-103  2.0865110672100643e-78  3.9773196500318410e-122  9.2449112299559172e-72  1.1741402081052937e-86  4.0651417564422526e-79  2.1359067401611053e-96  2.5736591410533535e-122  8.7827775573987912e-113  2.2255898395692210e-142  -1.4208522540960511e-145  5.9773408281433338e-153  2.7098230888433750e-127  1.9149580355827712e-130  1.4877222080666892e-148  3.5749176249627598e-30  5.8042208328255730e-13  -2.3693027647385612e-95  4.6377469585443700e-14  1.0382812487969332e-76  1.1942712513564410e-18  1.9709600739258109e-13  8.6797841538332273e-25  -3.6624681812574577e-63  -8.3078905735249946e-100  -5.7858059145319839e-75  5.5683956703101561e-89  1.1492519147430587e-13  6.7935794888260313e-31  -2.5291447058916554e-75  4.6866473436279150e-60  1.2119048019722440e-07  8.7220898754459625e-46  2.1145967842068387e-67  1.0808821632343563e-28  -7.6135466812407038e-25  -1.6405624508369553e-55  5.4294873230193661e-108  1.4260600033398689e-13  3.9767992832274532e-45  -7.4049204270290124e-101  1.3950410540278389e-61  4.3580342241260461e-56  7.5301752697380461e-47  -8.6753290278751568e-75  4.6594069692915540e-106  1.6062125699248320e-40  -8.9640865146485758e-49  -9.6054469941685632e-106  3.1180929401549497e-91  4.7428596412921031e-34  9.9066656234915017e-58  1.2244392825667822e-50  5.8176850639829821e-43  1.1856908157171975e-33  2.1029812568506824e-49  -1.2737844445597831e-98  1.7828528600051929e-96  1.6354981429249070e-81  1.3761576365081828e-72  6.1997823758192983e-75  3.3205759954780539e-63  1.2336940245135042e-122  8.4124831635313219e-61  2.0959484802924968e-77  -3.5124350889666304e-117  1.3081293883801322e-78  5.8030346484564084e-69  6.5069296693512907e-96  3.7168217115779389e-73  1.0175489471510284e-94  -2.3686445124484692e-134  5.7379202746190614e-112  4.3287006334474479e-122  1.2524759715566454e-103  1.5339519683809739e-121  8.2821127600558687e-96  6.3341143526101323e-121  3.8510363558522282e-132  -3.4440642923325889e-115  3.6186538682842048e-138  1.3100231843566441e-129  1.0812495722699249e-141  1.1328944991679593e-70  2.2455613202552872e-07  6.6664217455460784e-19  2.4226743000697524e-43  5.3062441872390633e-21  3.3655767921677254e-21  2.7701604180582875e-13  -1.7217693903237567e-86  9.2610024786464316e-25  2.3434354240285050e-24  5.1150121581659100e-24  1.6738599967357154e-08  4.0625352486861049e-43  -1.1266376919149502e-38  5.0696802512163355e-37  7.5477111558845633e-78  -7.2523785069485174e-64  1.1999202642887238e-95  -2.0657103923050839e-47  -4.7892262535160471e-69  -3.1716954298789333e-73  -3.7494924722776230e-61  3.4579619525319289e-08  4.2070677221931756e-83  1.3349252914993327e-08  1.4552194755377453e-82  9.7593542891102906e-52  1.5124076575769950e-07  8.7481749019698769e-14  -2.3782505759033148e-65  1.5443495108428218e-20  2.2254052012499606e-95  2.6964907361182207e-32  -3.3163107234015171e-67  -7.6494618693381739e-82  -1.6237591140238154e-108  8.8101630749584437e-102  9.7209609217834381e-08  -2.1091813829796640e-77  1.1878523440273223e-100  9.6047875269570483e-32  1.9953577467804063e-40  3.6468974993751896e-20  2.8072737433817776e-108  3.1978395476157039e-63  7.2780318573004428e-14  2.6827855972925437e-47  1.1130139244527094e-07  1.0404175180954164e-66  5.4302463989910014e-40  1.7807440050826876e-66  -6.1477168260222366e-82  2.0690935537003543e-39  4.6718750248757252e-102  1.4571185991736218e-41  2.3297656221586657e-80  4.1833537020038951e-27  1.4535792999026224e-27  3.9371647120433022e-100  5.1124729816170101e-42  2.9243902980805047e-49  -1.0228130881473755e-65  -2.4296274964025664e-50  2.0246181360750027e-114  1.3439155698055997e-53  4.8734912627501000e-50  1.1976229556952842e-48  1.4424232930489184e-55  8.6099947273511744e-54  1.7011231312714276e-112  -9.9389171367738371e-114  4.9062747158693205e-66  8.0513616261890782e-57  8.1046114667151321e-58  5.1968994065731925e-52  6.3051768788053991e-108  -1.0224616113833738e-86  -2.2980328179251383e-72  1.1229479166934446e-73  -1.4444622008989520e-104  5.6891087760541910e-97  5.6622684869985961e-62  8.9601074202981512e-81  1.7251798673499945e-63  2.3991774705212754e-123  1.1555049644512537e-70  -8.7232865892443359e-70  -4.1510728782548812e-127  5.2028115996964357e-86  1.3985869737137228e-132  1.5388587137419834e-86  1.9819409887667738e-78  8.3495765537337269e-96  5.6906887001402184e-131  1.2277524949000214e-105  3.6901043085991957e-131  -4.0420544596504160e-145  -2.7697990374023075e-123  3.9122139497228023e-119  2.9275662131381977e-35  2.2786785880157638e-14  4.9033248773506879e-30  -1.3499486441457578e-75  3.7401387595392112e-14  7.3734192663999298e-25  8.5132324646548975e-78  2.2278987499961881e-36  2.0295102161763290e-18  4.6719338391998277e-08  4.2008443016331043e-24  1.8168551223877429e-21  -1.9643137684161767e-39  1.2535555929276524e-08  1.0668360994935710e-86  -1.0307414477522927e-102  2.0854822793396942e-08  1.1002990068175122e-07  1.1761660215387751e-67  -2.0940971700300184e-82  1.3563205390979060e-19  3.3438440627961398e-26  1.8299244440875969e-08  3.7743269885269555e-19  3.8026086632032159e-31  -1.7886518673284124e-60  -1.9069859831369057e-90  -1.2156637864816427e-44  6.2235803397009846e-20  9.5966326191013325e-29  2.4541050166299578e-93  1.0611629237039169e-115  1.6139931157939398e-100  1.1503333033323574e-84  5.8196936142551895e-40  3.6039627957224405e-74  -1.4936479979032421e-60  -3.3255107031250410e-45  -4.5957684026786608e-110  3.8732112037280122e-20  1.7144830702003785e-33  3.2701492898159152e-21  1.6897675585310803e-51  3.7768385017929426e-14  1.5962358637428432e-104  -1.5950149252885950e-63  3.0705992275419340e-72  1.7135829346272499e-48  2.8530466394525967e-61  5.0358064812799835e-55  6.8243235080358991e-74  -1.7373290305843383e-40  -1.0275066237748790e-39  6.9750677747441886e-43  7.1294242326083996e-42  -9.7258537884097846e-37  -3.7466608218469711e-53  -1.3174751663266011e-67  -1.0273379159546075e-69  1.2283208741948089e-14  -1.5569777114667565e-98  9.7588765198903502e-49  -1.6528347806073514e-45  -1.3519381335491046e-92  -6.1891565933674784e-106  3.3222226738317720e-34  5.3505274180870751e-34  2.2101814967204197e-104  -6.7626730124071063e-78  -5.6827768963990334e-77  1.2450243760414792e-63  -1.1121893423780397e-114  3.1576533352806335e-81  -4.5226888691541766e-37  -5.1210803563572852e-50  1.0000455223911560e-56  1.1028328357801647e-105  2.0998161620370845e-51  1.5275739420943521e-50  -3.2478820796810442e-117  9.3055674311841990e-115  1.7203941764091289e-65  3.6751535481142212e-43  -2.3473889123879916e-81  1.4458287630566983e-84  1.9732633388083869e-90  6.4368587336744888e-74  5.0946277391444270e-59  2.5000549297625237e-56  6.7862234945815081e-64  2.9520987225524729e-64  -3.7069162582323519e-59  2.9651289234832186e-96  7.8492763661015878e-48  -1.0330930043436603e-88  5.6011440106466492e-50  -4.7022091552474354e-95  5.1192927639258294e-57  -1.0567147355329041e-78  1.0401649349445168e-82  -3.5936754382581183e-71  9.8632178331078107e-90  7.9364988791533185e-55  -6.3616662519595950e-80  -8.5594003661693382e-68  9.5573376692607073e-110  -9.5451569295113166e-104  -3.1140630785349744e-102  4.6566973759981554e-83  9.2220558442428692e-133  2.1738474381732464e-114  -4.6866875117551674e-134  -2.2434180538334922e-126  1.4947975617113433e-07  2.9701764106457978e-30  2.9219449164908557e-14  1.5635777888228104e-37  4.9302755682652729e-15  1.9793533425604361e-83  1.2914752893659697e-38  4.5331402565601742e-37  1.4942399771435787e-41  4.9245156609991881e-45  4.5226378105500221e-26  3.9735422860085481e-50  1.6418808944587264e-37  -4.5946025276559336e-94  -9.6910622121197534e-58  1.6996502845771501e-27  1.1430123325347266e-57  1.9800301030775939e-46  2.9142849095963090e-36  -3.3418722079555723e-52  8.4365601419550536e-14  4.9762247541787936e-68  2.3660653601717746e-53  7.0622564085928283e-61  1.0901540196654068e-116  3.2885819376545063e-27  1.1194400917372829e-26  -4.4306123923990059e-92  -5.6321766756218596e-31  1.7622420517543197e-20  9.9190245480514150e-42  2.4746275827200879e-109  4.1798989881821420e-34  4.2698551221650609e-59  5.7677830783516170e-34  1.7468263711543638e-70  1.1436634975561382e-26  -7.2369795758649467e-55  2.5119602545006863e-21  1.7936439126120599e-44  -9.9425443739548588e-76  2.1899773325147966e-80  -1.9063876092647730e-82  1.6870171810840446e-68  -2.9567144750047362e-79  -1.4564327051618549e-88  -6.2546607603866125e-68  4.8599037302327188e-34  2.2613486884654611e-34  -2.1385161768485236e-74  2.2555153794831678e-89  1.6512859676467690e-42  7.0705365096323234e-54  -3.0019390719361915e-52  -6.0895617729010611e-111  5.3732878589059968e-27  5.4531779201191722e-81  -1.9380042021606410e-61  5.8284056981180381e-56  1.9648221130701475e-42  1.7366562778041058e-58  -4.6898839061184318e-58  1.4334199644201407e-74  5.1419392616372993e-113  2.9009486091780794e-42  1.6787529273340830e-35  4.0077783169953533e-66  2.5468217925202917e-64  -3.3579984102233608e-109  1.7274457420496342e-52  1.7214839474971414e-48  -9.0072873111243359e-59  -6.7729906497253516e-113  -3.5633676334329484e-52  -2.3631225823050153e-85  8.9478931736265833e-67  3.7780421590631974e-46  -2.2236832301496319e-66  -2.1596108442966091e-43  7.0376422115341901e-74  6.3393308795106766e-59  -5.8345850378944174e-101  9.4634220503719914e-86  1.0940979874211999e-76  2.6489958744794600e-72  1.0447585560523887e-92  -1.2471066146545373e-65  3.1772583995745765e-64  -4.6851185344470649e-79  1.4292710592671946e-88  -1.0293713871412862e-67  3.4663225406334017e-81  1.1992664484168766e-57  -4.0019686212323102e-93  5.3726247122684935e-73  2.2957536899076601e-68  -1.0811496138399866e-56  1.6260654800758196e-107  1.2846089883668054e-80  2.6671969515184256e-63  5.5289321805784400e-92  1.8262217123447572e-88  7.0223115100034548e-103  -2.2639027995602582e-112  -7.0039080296717418e-115  1.0916558762259288e-109  -2.1148537901385134e-53  2.2722911971199138e-16  7.9741910641307261e-37  9.6963005387508005e-40  8.8929459504930463e-29  -1.7437353299446079e-122  2.5993722445729530e-38  -4.0313433336482596e-71  -1.1346466875713615e-51  3.6900232788172242e-27  1.8996021126740145e-33  7.3922127913461141e-44  1.0899401601949630e-26  4.8500869917196313e-23  3.8291379617609091e-118  2.7640399220574646e-56  -7.7144325914326289e-60  3.1103291050198483e-68  -1.2794610766321906e-58  -4.0697328210352063e-52  -5.2352929172299229e-72  2.2859239956405794e-41  3.7484633866960222e-50  -1.1888405257305202e-58  2.3640546958400043e-69  7.7761890279033975e-53  -1.9984164891690337e-84  -9.6503375960578255e-104  5.6997105706644101e-76  1.8922840607282989e-61  2.2795978826731984e-36  6.4450250786714401e-76  -6.3462405516961376e-37  2.0718352993291816e-27  2.0611416051204033e-63  -7.1239938119897983e-75  1.0398698526040072e-120  2.9543571716106996e-50  5.0236300043943001e-42  -2.8951098808013649e-69  1.2222604214387358e-98  2.3627710559575960e-49  3.0256214344536013e-65  -1.1454194378040373e-51  2.4542355196400310e-62  -4.5372569033443579e-64  -8.1607905983319441e-70  8.4625820708296326e-95  1.4642185533821516e-83  -3.7656658321494893e-51  4.7227834894613792e-41  1.3378306920478805e-42  5.9603254082622633e-81  1.6314106085827705e-65  -5.4441611568996988e-63  2.0716391000995618e-77  1.2769872403028342e-49  4.3380012458734016e-91  -1.2944351741248127e-98  1.8893292679038764e-80  3.6982754295874567e-58  1.4238074352375573e-73  3.3611705797799491e-65  -6.8829720977514510e-89  1.6899597380302706e-59  7.9460511124240332e-101  3.2098005284187586e-93  2.1192676985186204e-50  1.1504147786842061e-67  9.1934183554341755e-71  2.7417408451848014e-54  -4.1434483090270014e-46  -1.6848796369188407e-54  2.0633347768002393e-89  4.1195043768663561e-94  6.3684865683878307e-65  1.5543101976807777e-82  1.0122463037689563e-99  1.3645549735239299e-97  6.4147218273532685e-109  1.9139330747881527e-116  1.1884043002823395e-78  3.9790713503463950e-36  -5.4143683732006410e-47  -1.1168219460643881e-44  3.9669497368682706e-51  2.1570814829783393e-58  1.2250335552945590e-51  5.3181250512616620e-91  -1.0685580127315254e-59  -6.4824233702656232e-71  2.3944560892258542e-79  1.3868365167027792e-43  -1.8377135527535290e-71  2.2227180215019544e-51  1.6734392320360679e-35  -3.1570996567524440e-86  -7.2078949646422265e-75  1.5035058101607233e-59  2.2210303028311670e-85  3.3144690949886630e-73  -1.1303962529182117e-59  5.7784266156820443e-52  -3.7438401616869298e-68  -7.2339222195762823e-53  2.5861663548285399e-58  -2.5388593423640469e-89  3.1024909766837815e-95  3.1235160984012726e-86  4.9623084082333218e-61  8.1031192814613713e-62  1.6530502863499105e-104  -9.4120680699528632e-95  1.0913598937568666e-69  1.3283018739796539e-77  2.4260592196398168e-106  9.2590684534891237e-118  2.4369487608150232e-99  6.0933197325133045e-126  2.5130750837295827e-71  1.3377624525688939e-59  -1.6594182441460358e-87  1.1185755945821660e-78  7.0560186288984359e-48  -1.5400612412672650e-94  -2.5973629579731905e-73  -2.2463029944037752e-68  -1.4051519163061709e-59  1.3177806013384158e-95  -2.8761918380437606e-104  7.8526788035135547e-98  3.9214257118057081e-87  4.6550867648814022e-61  2.4767153732983427e-127  2.0797377499886280e-127  1.7365168669558372e-119  1.1532747453470165e-89  -1.3195410923502692e-104  4.0147187606904446e-155  -2.3187678181819952e-149  -4.3715115635934263e-143  -9.8996509645485522e-137  -1.7944164798461857e-128  -1.7655653262056909e-118  -1.2412087712482344e-109  -6.0420547643455207e-99  1.1254219153296876e-90  -5.8623031829416419e-84  1.5391365652105949e-83  -1.5197978206791312e-82  -2.8778411667041249e-86  5.2654863040526475e-90  1.0194947621845130e-94  6.9247949445675632e-99  6.1628279383722334e-105  1.6598778087513644e-114  1.8816938277269383e-123  -3.0007026789150085e-132  -3.8092085798675966e-141  -1.0958024325204612e-150  -2.1765986890059831e-155  -3.5890768146031394e-156  -7.0700330974499028e-160  1.4843409964738093e-162  8.8532566957506971e-158  6.4024740457300020e-148  1.5314866111636982e-142  1.7135529012963143e-137  2.6926573133969214e-128  9.9589140920845983e-123  2.0626864974072077e-123  1.3696519425666442e-118  3.0367705932798323e-122  -7.0350868146148404e-127  -1.4204394718630427e-122  3.3941186349521346e-123  9.8181003981618641e-122  -1.0509200617113220e-122  3.8826705848353492e-126  2.3165427780261253e-122  -6.3966515729890847e-122  -2.5281668297949010e-118  1.9598268639494885e-114  9.1351373383237121e-113  -1.8172245503396221e-107  -2.9843375194319447e-99  5.2645979999381482e-96  1.1258061813220334e-99  6.3432373136985341e-103  6.8383985285137008e-94  -5.5